+ 0.1 1 2 cbr 1000 ------- 2 1.0 2.0 0 0
- 0.1 1 2 cbr 1000 ------- 2 1.0 2.0 0 0
+ 0.100411 1 2 cbr 1000 ------- 2 1.0 2.0 1 1
- 0.1008 1 2 cbr 1000 ------- 2 1.0 2.0 1 1
+ 0.100882 1 2 cbr 1000 ------- 2 1.0 2.0 2 2
- 0.1016 1 2 cbr 1000 ------- 2 1.0 2.0 2 2
+ 0.101635 1 2 cbr 1000 ------- 2 1.0 2.0 3 3
- 0.1024 1 2 cbr 1000 ------- 2 1.0 2.0 3 3
+ 0.102674 1 2 cbr 1000 ------- 2 1.0 2.0 4 4
- 0.1032 1 2 cbr 1000 ------- 2 1.0 2.0 4 4
+ 0.103324 1 2 cbr 1000 ------- 2 1.0 2.0 5 5
- 0.104 1 2 cbr 1000 ------- 2 1.0 2.0 5 5
+ 0.104378 1 2 cbr 1000 ------- 2 1.0 2.0 6 6
- 0.1048 1 2 cbr 1000 ------- 2 1.0 2.0 6 6
+ 0.104965 1 2 cbr 1000 ------- 2 1.0 2.0 7 7
- 0.1056 1 2 cbr 1000 ------- 2 1.0 2.0 7 7
+ 0.105876 1 2 cbr 1000 ------- 2 1.0 2.0 8 8
- 0.1064 1 2 cbr 1000 ------- 2 1.0 2.0 8 8
+ 0.106524 1 2 cbr 1000 ------- 2 1.0 2.0 9 9
- 0.1072 1 2 cbr 1000 ------- 2 1.0 2.0 9 9
+ 0.107593 1 2 cbr 1000 ------- 2 1.0 2.0 10 10
- 0.108 1 2 cbr 1000 ------- 2 1.0 2.0 10 10
+ 0.108124 1 2 cbr 1000 ------- 2 1.0 2.0 11 11
+ 0.108558 1 2 cbr 1000 ------- 2 1.0 2.0 12 12
- 0.1088 1 2 cbr 1000 ------- 2 1.0 2.0 11 11
+ 0.10947 1 2 cbr 1000 ------- 2 1.0 2.0 13 13
- 0.1096 1 2 cbr 1000 ------- 2 1.0 2.0 12 12
+ 0.109961 1 2 cbr 1000 ------- 2 1.0 2.0 14 14
- 0.1104 1 2 cbr 1000 ------- 2 1.0 2.0 13 13
r 0.1108 1 2 cbr 1000 ------- 2 1.0 2.0 0 0
+ 0.111049 1 2 cbr 1000 ------- 2 1.0 2.0 15 15
- 0.1112 1 2 cbr 1000 ------- 2 1.0 2.0 14 14
r 0.1116 1 2 cbr 1000 ------- 2 1.0 2.0 1 1
+ 0.111788 1 2 cbr 1000 ------- 2 1.0 2.0 16 16
- 0.112 1 2 cbr 1000 ------- 2 1.0 2.0 15 15
+ 0.112328 1 2 cbr 1000 ------- 2 1.0 2.0 17 17
r 0.1124 1 2 cbr 1000 ------- 2 1.0 2.0 2 2
- 0.1128 1 2 cbr 1000 ------- 2 1.0 2.0 16 16
+ 0.112803 1 2 cbr 1000 ------- 2 1.0 2.0 18 18
r 0.1132 1 2 cbr 1000 ------- 2 1.0 2.0 3 3
- 0.1136 1 2 cbr 1000 ------- 2 1.0 2.0 17 17
+ 0.113849 1 2 cbr 1000 ------- 2 1.0 2.0 19 19
r 0.114 1 2 cbr 1000 ------- 2 1.0 2.0 4 4
- 0.1144 1 2 cbr 1000 ------- 2 1.0 2.0 18 18
+ 0.114528 1 2 cbr 1000 ------- 2 1.0 2.0 20 20
r 0.1148 1 2 cbr 1000 ------- 2 1.0 2.0 5 5
+ 0.115134 1 2 cbr 1000 ------- 2 1.0 2.0 21 21
- 0.1152 1 2 cbr 1000 ------- 2 1.0 2.0 19 19
r 0.1156 1 2 cbr 1000 ------- 2 1.0 2.0 6 6
+ 0.115861 1 2 cbr 1000 ------- 2 1.0 2.0 22 22
- 0.116 1 2 cbr 1000 ------- 2 1.0 2.0 20 20
r 0.1164 1 2 cbr 1000 ------- 2 1.0 2.0 7 7
+ 0.116676 1 2 cbr 1000 ------- 2 1.0 2.0 23 23
- 0.1168 1 2 cbr 1000 ------- 2 1.0 2.0 21 21
r 0.1172 1 2 cbr 1000 ------- 2 1.0 2.0 8 8
+ 0.117449 1 2 cbr 1000 ------- 2 1.0 2.0 24 24
- 0.1176 1 2 cbr 1000 ------- 2 1.0 2.0 22 22
r 0.118 1 2 cbr 1000 ------- 2 1.0 2.0 9 9
- 0.1184 1 2 cbr 1000 ------- 2 1.0 2.0 23 23
+ 0.118403 1 2 cbr 1000 ------- 2 1.0 2.0 25 25
r 0.1188 1 2 cbr 1000 ------- 2 1.0 2.0 10 10
- 0.1192 1 2 cbr 1000 ------- 2 1.0 2.0 24 24
+ 0.119493 1 2 cbr 1000 ------- 2 1.0 2.0 26 26
r 0.1196 1 2 cbr 1000 ------- 2 1.0 2.0 11 11
- 0.12 1 2 cbr 1000 ------- 2 1.0 2.0 25 25
r 0.1204 1 2 cbr 1000 ------- 2 1.0 2.0 12 12
+ 0.120564 1 2 cbr 1000 ------- 2 1.0 2.0 27 27
- 0.1208 1 2 cbr 1000 ------- 2 1.0 2.0 26 26
+ 0.121138 1 2 cbr 1000 ------- 2 1.0 2.0 28 28
r 0.1212 1 2 cbr 1000 ------- 2 1.0 2.0 13 13
- 0.1216 1 2 cbr 1000 ------- 2 1.0 2.0 27 27
+ 0.121731 1 2 cbr 1000 ------- 2 1.0 2.0 29 29
r 0.122 1 2 cbr 1000 ------- 2 1.0 2.0 14 14
- 0.1224 1 2 cbr 1000 ------- 2 1.0 2.0 28 28
r 0.1228 1 2 cbr 1000 ------- 2 1.0 2.0 15 15
+ 0.122812 1 2 cbr 1000 ------- 2 1.0 2.0 30 30
- 0.1232 1 2 cbr 1000 ------- 2 1.0 2.0 29 29
r 0.1236 1 2 cbr 1000 ------- 2 1.0 2.0 16 16
+ 0.123754 1 2 cbr 1000 ------- 2 1.0 2.0 31 31
- 0.124 1 2 cbr 1000 ------- 2 1.0 2.0 30 30
r 0.1244 1 2 cbr 1000 ------- 2 1.0 2.0 17 17
+ 0.124764 1 2 cbr 1000 ------- 2 1.0 2.0 32 32
- 0.1248 1 2 cbr 1000 ------- 2 1.0 2.0 31 31
r 0.1252 1 2 cbr 1000 ------- 2 1.0 2.0 18 18
- 0.1256 1 2 cbr 1000 ------- 2 1.0 2.0 32 32
+ 0.125888 1 2 cbr 1000 ------- 2 1.0 2.0 33 33
r 0.126 1 2 cbr 1000 ------- 2 1.0 2.0 19 19
- 0.1264 1 2 cbr 1000 ------- 2 1.0 2.0 33 33
+ 0.126612 1 2 cbr 1000 ------- 2 1.0 2.0 34 34
r 0.1268 1 2 cbr 1000 ------- 2 1.0 2.0 20 20
+ 0.127099 1 2 cbr 1000 ------- 2 1.0 2.0 35 35
- 0.1272 1 2 cbr 1000 ------- 2 1.0 2.0 34 34
r 0.1276 1 2 cbr 1000 ------- 2 1.0 2.0 21 21
+ 0.127823 1 2 cbr 1000 ------- 2 1.0 2.0 36 36
- 0.128 1 2 cbr 1000 ------- 2 1.0 2.0 35 35
+ 0.128373 1 2 cbr 1000 ------- 2 1.0 2.0 37 37
r 0.1284 1 2 cbr 1000 ------- 2 1.0 2.0 22 22
- 0.1288 1 2 cbr 1000 ------- 2 1.0 2.0 36 36
r 0.1292 1 2 cbr 1000 ------- 2 1.0 2.0 23 23
+ 0.129483 1 2 cbr 1000 ------- 2 1.0 2.0 38 38
- 0.1296 1 2 cbr 1000 ------- 2 1.0 2.0 37 37
r 0.13 1 2 cbr 1000 ------- 2 1.0 2.0 24 24
- 0.1304 1 2 cbr 1000 ------- 2 1.0 2.0 38 38
+ 0.13064 1 2 cbr 1000 ------- 2 1.0 2.0 39 39
r 0.1308 1 2 cbr 1000 ------- 2 1.0 2.0 25 25
- 0.1312 1 2 cbr 1000 ------- 2 1.0 2.0 39 39
r 0.1316 1 2 cbr 1000 ------- 2 1.0 2.0 26 26
+ 0.131753 1 2 cbr 1000 ------- 2 1.0 2.0 40 40
- 0.132 1 2 cbr 1000 ------- 2 1.0 2.0 40 40
+ 0.132242 1 2 cbr 1000 ------- 2 1.0 2.0 41 41
r 0.1324 1 2 cbr 1000 ------- 2 1.0 2.0 27 27
+ 0.132689 1 2 cbr 1000 ------- 2 1.0 2.0 42 42
- 0.1328 1 2 cbr 1000 ------- 2 1.0 2.0 41 41
+ 0.133098 1 2 cbr 1000 ------- 2 1.0 2.0 43 43
r 0.1332 1 2 cbr 1000 ------- 2 1.0 2.0 28 28
- 0.1336 1 2 cbr 1000 ------- 2 1.0 2.0 42 42
+ 0.133974 1 2 cbr 1000 ------- 2 1.0 2.0 44 44
r 0.134 1 2 cbr 1000 ------- 2 1.0 2.0 29 29
- 0.1344 1 2 cbr 1000 ------- 2 1.0 2.0 43 43
+ 0.134642 1 2 cbr 1000 ------- 2 1.0 2.0 45 45
r 0.1348 1 2 cbr 1000 ------- 2 1.0 2.0 30 30
+ 0.135141 1 2 cbr 1000 ------- 2 1.0 2.0 46 46
- 0.1352 1 2 cbr 1000 ------- 2 1.0 2.0 44 44
r 0.1356 1 2 cbr 1000 ------- 2 1.0 2.0 31 31
- 0.136 1 2 cbr 1000 ------- 2 1.0 2.0 45 45
+ 0.136076 1 2 cbr 1000 ------- 2 1.0 2.0 47 47
r 0.1364 1 2 cbr 1000 ------- 2 1.0 2.0 32 32
+ 0.136681 1 2 cbr 1000 ------- 2 1.0 2.0 48 48
- 0.1368 1 2 cbr 1000 ------- 2 1.0 2.0 46 46
r 0.1372 1 2 cbr 1000 ------- 2 1.0 2.0 33 33
- 0.1376 1 2 cbr 1000 ------- 2 1.0 2.0 47 47
+ 0.13764 1 2 cbr 1000 ------- 2 1.0 2.0 49 49
r 0.138 1 2 cbr 1000 ------- 2 1.0 2.0 34 34
- 0.1384 1 2 cbr 1000 ------- 2 1.0 2.0 48 48
+ 0.138476 1 2 cbr 1000 ------- 2 1.0 2.0 50 50
r 0.1388 1 2 cbr 1000 ------- 2 1.0 2.0 35 35
- 0.1392 1 2 cbr 1000 ------- 2 1.0 2.0 49 49
+ 0.139577 1 2 cbr 1000 ------- 2 1.0 2.0 51 51
r 0.1396 1 2 cbr 1000 ------- 2 1.0 2.0 36 36
- 0.14 1 2 cbr 1000 ------- 2 1.0 2.0 50 50
+ 0.140187 1 2 cbr 1000 ------- 2 1.0 2.0 52 52
r 0.1404 1 2 cbr 1000 ------- 2 1.0 2.0 37 37
- 0.1408 1 2 cbr 1000 ------- 2 1.0 2.0 51 51
+ 0.141031 1 2 cbr 1000 ------- 2 1.0 2.0 53 53
r 0.1412 1 2 cbr 1000 ------- 2 1.0 2.0 38 38
- 0.1416 1 2 cbr 1000 ------- 2 1.0 2.0 52 52
+ 0.141771 1 2 cbr 1000 ------- 2 1.0 2.0 54 54
r 0.142 1 2 cbr 1000 ------- 2 1.0 2.0 39 39
+ 0.142193 1 2 cbr 1000 ------- 2 1.0 2.0 55 55
- 0.1424 1 2 cbr 1000 ------- 2 1.0 2.0 53 53
r 0.1428 1 2 cbr 1000 ------- 2 1.0 2.0 40 40
+ 0.142855 1 2 cbr 1000 ------- 2 1.0 2.0 56 56
- 0.1432 1 2 cbr 1000 ------- 2 1.0 2.0 54 54
+ 0.143404 1 2 cbr 1000 ------- 2 1.0 2.0 57 57
r 0.1436 1 2 cbr 1000 ------- 2 1.0 2.0 41 41
- 0.144 1 2 cbr 1000 ------- 2 1.0 2.0 55 55
r 0.1444 1 2 cbr 1000 ------- 2 1.0 2.0 42 42
+ 0.144432 1 2 cbr 1000 ------- 2 1.0 2.0 58 58
- 0.1448 1 2 cbr 1000 ------- 2 1.0 2.0 56 56
r 0.1452 1 2 cbr 1000 ------- 2 1.0 2.0 43 43
+ 0.14559 1 2 cbr 1000 ------- 2 1.0 2.0 59 59
- 0.1456 1 2 cbr 1000 ------- 2 1.0 2.0 57 57
r 0.146 1 2 cbr 1000 ------- 2 1.0 2.0 44 44
- 0.1464 1 2 cbr 1000 ------- 2 1.0 2.0 58 58
+ 0.146608 1 2 cbr 1000 ------- 2 1.0 2.0 60 60
r 0.1468 1 2 cbr 1000 ------- 2 1.0 2.0 45 45
+ 0.147173 1 2 cbr 1000 ------- 2 1.0 2.0 61 61
- 0.1472 1 2 cbr 1000 ------- 2 1.0 2.0 59 59
r 0.1476 1 2 cbr 1000 ------- 2 1.0 2.0 46 46
- 0.148 1 2 cbr 1000 ------- 2 1.0 2.0 60 60
+ 0.148129 1 2 cbr 1000 ------- 2 1.0 2.0 62 62
r 0.1484 1 2 cbr 1000 ------- 2 1.0 2.0 47 47
+ 0.148672 1 2 cbr 1000 ------- 2 1.0 2.0 63 63
- 0.1488 1 2 cbr 1000 ------- 2 1.0 2.0 61 61
r 0.1492 1 2 cbr 1000 ------- 2 1.0 2.0 48 48
- 0.1496 1 2 cbr 1000 ------- 2 1.0 2.0 62 62
+ 0.149853 1 2 cbr 1000 ------- 2 1.0 2.0 64 64
r 0.15 1 2 cbr 1000 ------- 2 1.0 2.0 49 49
+ 0.150326 1 2 cbr 1000 ------- 2 1.0 2.0 65 65
- 0.1504 1 2 cbr 1000 ------- 2 1.0 2.0 63 63
r 0.1508 1 2 cbr 1000 ------- 2 1.0 2.0 50 50
+ 0.151119 1 2 cbr 1000 ------- 2 1.0 2.0 66 66
- 0.1512 1 2 cbr 1000 ------- 2 1.0 2.0 64 64
+ 0.151559 1 2 cbr 1000 ------- 2 1.0 2.0 67 67
r 0.1516 1 2 cbr 1000 ------- 2 1.0 2.0 51 51
- 0.152 1 2 cbr 1000 ------- 2 1.0 2.0 65 65
r 0.1524 1 2 cbr 1000 ------- 2 1.0 2.0 52 52
+ 0.152652 1 2 cbr 1000 ------- 2 1.0 2.0 68 68
- 0.1528 1 2 cbr 1000 ------- 2 1.0 2.0 66 66
r 0.1532 1 2 cbr 1000 ------- 2 1.0 2.0 53 53
+ 0.153478 1 2 cbr 1000 ------- 2 1.0 2.0 69 69
- 0.1536 1 2 cbr 1000 ------- 2 1.0 2.0 67 67
r 0.154 1 2 cbr 1000 ------- 2 1.0 2.0 54 54
- 0.1544 1 2 cbr 1000 ------- 2 1.0 2.0 68 68
+ 0.154466 1 2 cbr 1000 ------- 2 1.0 2.0 70 70
r 0.1548 1 2 cbr 1000 ------- 2 1.0 2.0 55 55
- 0.1552 1 2 cbr 1000 ------- 2 1.0 2.0 69 69
+ 0.155203 1 2 cbr 1000 ------- 2 1.0 2.0 71 71
r 0.1556 1 2 cbr 1000 ------- 2 1.0 2.0 56 56
+ 0.155673 1 2 cbr 1000 ------- 2 1.0 2.0 72 72
- 0.156 1 2 cbr 1000 ------- 2 1.0 2.0 70 70
r 0.1564 1 2 cbr 1000 ------- 2 1.0 2.0 57 57
+ 0.156725 1 2 cbr 1000 ------- 2 1.0 2.0 73 73
- 0.1568 1 2 cbr 1000 ------- 2 1.0 2.0 71 71
r 0.1572 1 2 cbr 1000 ------- 2 1.0 2.0 58 58
- 0.1576 1 2 cbr 1000 ------- 2 1.0 2.0 72 72
+ 0.157847 1 2 cbr 1000 ------- 2 1.0 2.0 74 74
r 0.158 1 2 cbr 1000 ------- 2 1.0 2.0 59 59
- 0.1584 1 2 cbr 1000 ------- 2 1.0 2.0 73 73
r 0.1588 1 2 cbr 1000 ------- 2 1.0 2.0 60 60
+ 0.15883 1 2 cbr 1000 ------- 2 1.0 2.0 75 75
- 0.1592 1 2 cbr 1000 ------- 2 1.0 2.0 74 74
r 0.1596 1 2 cbr 1000 ------- 2 1.0 2.0 61 61
+ 0.159929 1 2 cbr 1000 ------- 2 1.0 2.0 76 76
- 0.16 1 2 cbr 1000 ------- 2 1.0 2.0 75 75
r 0.1604 1 2 cbr 1000 ------- 2 1.0 2.0 62 62
+ 0.160798 1 2 cbr 1000 ------- 2 1.0 2.0 77 77
- 0.1608 1 2 cbr 1000 ------- 2 1.0 2.0 76 76
r 0.1612 1 2 cbr 1000 ------- 2 1.0 2.0 63 63
- 0.1616 1 2 cbr 1000 ------- 2 1.0 2.0 77 77
+ 0.161787 1 2 cbr 1000 ------- 2 1.0 2.0 78 78
r 0.162 1 2 cbr 1000 ------- 2 1.0 2.0 64 64
- 0.1624 1 2 cbr 1000 ------- 2 1.0 2.0 78 78
r 0.1628 1 2 cbr 1000 ------- 2 1.0 2.0 65 65
+ 0.162829 1 2 cbr 1000 ------- 2 1.0 2.0 79 79
- 0.1632 1 2 cbr 1000 ------- 2 1.0 2.0 79 79
+ 0.163513 1 2 cbr 1000 ------- 2 1.0 2.0 80 80
r 0.1636 1 2 cbr 1000 ------- 2 1.0 2.0 66 66
- 0.164 1 2 cbr 1000 ------- 2 1.0 2.0 80 80
+ 0.16436 1 2 cbr 1000 ------- 2 1.0 2.0 81 81
r 0.1644 1 2 cbr 1000 ------- 2 1.0 2.0 67 67
- 0.1648 1 2 cbr 1000 ------- 2 1.0 2.0 81 81
r 0.1652 1 2 cbr 1000 ------- 2 1.0 2.0 68 68
+ 0.165413 1 2 cbr 1000 ------- 2 1.0 2.0 82 82
- 0.1656 1 2 cbr 1000 ------- 2 1.0 2.0 82 82
r 0.166 1 2 cbr 1000 ------- 2 1.0 2.0 69 69
+ 0.16644 1 2 cbr 1000 ------- 2 1.0 2.0 83 83
- 0.16644 1 2 cbr 1000 ------- 2 1.0 2.0 83 83
r 0.1668 1 2 cbr 1000 ------- 2 1.0 2.0 70 70
+ 0.16737 1 2 cbr 1000 ------- 2 1.0 2.0 84 84
- 0.16737 1 2 cbr 1000 ------- 2 1.0 2.0 84 84
r 0.1676 1 2 cbr 1000 ------- 2 1.0 2.0 71 71
+ 0.16789 1 2 cbr 1000 ------- 2 1.0 2.0 85 85
- 0.16817 1 2 cbr 1000 ------- 2 1.0 2.0 85 85
r 0.1684 1 2 cbr 1000 ------- 2 1.0 2.0 72 72
+ 0.168616 1 2 cbr 1000 ------- 2 1.0 2.0 86 86
- 0.16897 1 2 cbr 1000 ------- 2 1.0 2.0 86 86
r 0.1692 1 2 cbr 1000 ------- 2 1.0 2.0 73 73
+ 0.169452 1 2 cbr 1000 ------- 2 1.0 2.0 87 87
- 0.16977 1 2 cbr 1000 ------- 2 1.0 2.0 87 87
r 0.17 1 2 cbr 1000 ------- 2 1.0 2.0 74 74
+ 0.170151 1 2 cbr 1000 ------- 2 1.0 2.0 88 88
+ 0.170551 1 2 cbr 1000 ------- 2 1.0 2.0 89 89
- 0.17057 1 2 cbr 1000 ------- 2 1.0 2.0 88 88
r 0.1708 1 2 cbr 1000 ------- 2 1.0 2.0 75 75
+ 0.171018 1 2 cbr 1000 ------- 2 1.0 2.0 90 90
- 0.17137 1 2 cbr 1000 ------- 2 1.0 2.0 89 89
r 0.1716 1 2 cbr 1000 ------- 2 1.0 2.0 76 76
+ 0.171684 1 2 cbr 1000 ------- 2 1.0 2.0 91 91
- 0.17217 1 2 cbr 1000 ------- 2 1.0 2.0 90 90
r 0.1724 1 2 cbr 1000 ------- 2 1.0 2.0 77 77
+ 0.172641 1 2 cbr 1000 ------- 2 1.0 2.0 92 92
- 0.17297 1 2 cbr 1000 ------- 2 1.0 2.0 91 91
r 0.1732 1 2 cbr 1000 ------- 2 1.0 2.0 78 78
+ 0.17377 1 2 cbr 1000 ------- 2 1.0 2.0 93 93
- 0.17377 1 2 cbr 1000 ------- 2 1.0 2.0 92 92
r 0.174 1 2 cbr 1000 ------- 2 1.0 2.0 79 79
+ 0.174196 1 2 cbr 1000 ------- 2 1.0 2.0 94 94
- 0.17457 1 2 cbr 1000 ------- 2 1.0 2.0 93 93
r 0.1748 1 2 cbr 1000 ------- 2 1.0 2.0 80 80
+ 0.174889 1 2 cbr 1000 ------- 2 1.0 2.0 95 95
- 0.17537 1 2 cbr 1000 ------- 2 1.0 2.0 94 94
+ 0.175533 1 2 cbr 1000 ------- 2 1.0 2.0 96 96
r 0.1756 1 2 cbr 1000 ------- 2 1.0 2.0 81 81
+ 0.175935 1 2 cbr 1000 ------- 2 1.0 2.0 97 97
- 0.17617 1 2 cbr 1000 ------- 2 1.0 2.0 95 95
r 0.1764 1 2 cbr 1000 ------- 2 1.0 2.0 82 82
+ 0.176593 1 2 cbr 1000 ------- 2 1.0 2.0 98 98
- 0.17697 1 2 cbr 1000 ------- 2 1.0 2.0 96 96
r 0.17724 1 2 cbr 1000 ------- 2 1.0 2.0 83 83
+ 0.177698 1 2 cbr 1000 ------- 2 1.0 2.0 99 99
- 0.17777 1 2 cbr 1000 ------- 2 1.0 2.0 97 97
r 0.17817 1 2 cbr 1000 ------- 2 1.0 2.0 84 84
- 0.17857 1 2 cbr 1000 ------- 2 1.0 2.0 98 98
+ 0.178802 1 2 cbr 1000 ------- 2 1.0 2.0 100 100
r 0.17897 1 2 cbr 1000 ------- 2 1.0 2.0 85 85
- 0.17937 1 2 cbr 1000 ------- 2 1.0 2.0 99 99
r 0.17977 1 2 cbr 1000 ------- 2 1.0 2.0 86 86
+ 0.179846 1 2 cbr 1000 ------- 2 1.0 2.0 101 101
- 0.18017 1 2 cbr 1000 ------- 2 1.0 2.0 100 100
+ 0.180383 1 2 cbr 1000 ------- 2 1.0 2.0 102 102
r 0.18057 1 2 cbr 1000 ------- 2 1.0 2.0 87 87
+ 0.180809 1 2 cbr 1000 ------- 2 1.0 2.0 103 103
- 0.18097 1 2 cbr 1000 ------- 2 1.0 2.0 101 101
r 0.18137 1 2 cbr 1000 ------- 2 1.0 2.0 88 88
- 0.18177 1 2 cbr 1000 ------- 2 1.0 2.0 102 102
+ 0.181813 1 2 cbr 1000 ------- 2 1.0 2.0 104 104
r 0.18217 1 2 cbr 1000 ------- 2 1.0 2.0 89 89
- 0.18257 1 2 cbr 1000 ------- 2 1.0 2.0 103 103
+ 0.182705 1 2 cbr 1000 ------- 2 1.0 2.0 105 105
r 0.18297 1 2 cbr 1000 ------- 2 1.0 2.0 90 90
- 0.18337 1 2 cbr 1000 ------- 2 1.0 2.0 104 104
+ 0.183737 1 2 cbr 1000 ------- 2 1.0 2.0 106 106
r 0.18377 1 2 cbr 1000 ------- 2 1.0 2.0 91 91
- 0.18417 1 2 cbr 1000 ------- 2 1.0 2.0 105 105
+ 0.184554 1 2 cbr 1000 ------- 2 1.0 2.0 107 107
r 0.18457 1 2 cbr 1000 ------- 2 1.0 2.0 92 92
- 0.18497 1 2 cbr 1000 ------- 2 1.0 2.0 106 106
+ 0.185315 1 2 cbr 1000 ------- 2 1.0 2.0 108 108
r 0.18537 1 2 cbr 1000 ------- 2 1.0 2.0 93 93
- 0.18577 1 2 cbr 1000 ------- 2 1.0 2.0 107 107
+ 0.185881 1 2 cbr 1000 ------- 2 1.0 2.0 109 109
r 0.18617 1 2 cbr 1000 ------- 2 1.0 2.0 94 94
+ 0.186293 1 2 cbr 1000 ------- 2 1.0 2.0 110 110
- 0.18657 1 2 cbr 1000 ------- 2 1.0 2.0 108 108
r 0.18697 1 2 cbr 1000 ------- 2 1.0 2.0 95 95
+ 0.187045 1 2 cbr 1000 ------- 2 1.0 2.0 111 111
- 0.18737 1 2 cbr 1000 ------- 2 1.0 2.0 109 109
r 0.18777 1 2 cbr 1000 ------- 2 1.0 2.0 96 96
+ 0.187795 1 2 cbr 1000 ------- 2 1.0 2.0 112 112
- 0.18817 1 2 cbr 1000 ------- 2 1.0 2.0 110 110
+ 0.18846 1 2 cbr 1000 ------- 2 1.0 2.0 113 113
r 0.18857 1 2 cbr 1000 ------- 2 1.0 2.0 97 97
+ 0.188955 1 2 cbr 1000 ------- 2 1.0 2.0 114 114
- 0.18897 1 2 cbr 1000 ------- 2 1.0 2.0 111 111
r 0.18937 1 2 cbr 1000 ------- 2 1.0 2.0 98 98
- 0.18977 1 2 cbr 1000 ------- 2 1.0 2.0 112 112
+ 0.190075 1 2 cbr 1000 ------- 2 1.0 2.0 115 115
r 0.19017 1 2 cbr 1000 ------- 2 1.0 2.0 99 99
- 0.19057 1 2 cbr 1000 ------- 2 1.0 2.0 113 113
+ 0.190646 1 2 cbr 1000 ------- 2 1.0 2.0 116 116
r 0.19097 1 2 cbr 1000 ------- 2 1.0 2.0 100 100
- 0.19137 1 2 cbr 1000 ------- 2 1.0 2.0 114 114
+ 0.191391 1 2 cbr 1000 ------- 2 1.0 2.0 117 117
r 0.19177 1 2 cbr 1000 ------- 2 1.0 2.0 101 101
+ 0.192129 1 2 cbr 1000 ------- 2 1.0 2.0 118 118
- 0.19217 1 2 cbr 1000 ------- 2 1.0 2.0 115 115
r 0.19257 1 2 cbr 1000 ------- 2 1.0 2.0 102 102
+ 0.192855 1 2 cbr 1000 ------- 2 1.0 2.0 119 119
- 0.19297 1 2 cbr 1000 ------- 2 1.0 2.0 116 116
r 0.19337 1 2 cbr 1000 ------- 2 1.0 2.0 103 103
- 0.19377 1 2 cbr 1000 ------- 2 1.0 2.0 117 117
+ 0.193844 1 2 cbr 1000 ------- 2 1.0 2.0 120 120
r 0.19417 1 2 cbr 1000 ------- 2 1.0 2.0 104 104
- 0.19457 1 2 cbr 1000 ------- 2 1.0 2.0 118 118
+ 0.194631 1 2 cbr 1000 ------- 2 1.0 2.0 121 121
r 0.19497 1 2 cbr 1000 ------- 2 1.0 2.0 105 105
- 0.19537 1 2 cbr 1000 ------- 2 1.0 2.0 119 119
+ 0.195749 1 2 cbr 1000 ------- 2 1.0 2.0 122 122
r 0.19577 1 2 cbr 1000 ------- 2 1.0 2.0 106 106
- 0.19617 1 2 cbr 1000 ------- 2 1.0 2.0 120 120
r 0.19657 1 2 cbr 1000 ------- 2 1.0 2.0 107 107
+ 0.196647 1 2 cbr 1000 ------- 2 1.0 2.0 123 123
- 0.19697 1 2 cbr 1000 ------- 2 1.0 2.0 121 121
r 0.19737 1 2 cbr 1000 ------- 2 1.0 2.0 108 108
+ 0.197728 1 2 cbr 1000 ------- 2 1.0 2.0 124 124
- 0.19777 1 2 cbr 1000 ------- 2 1.0 2.0 122 122
r 0.19817 1 2 cbr 1000 ------- 2 1.0 2.0 109 109
+ 0.198255 1 2 cbr 1000 ------- 2 1.0 2.0 125 125
- 0.19857 1 2 cbr 1000 ------- 2 1.0 2.0 123 123
+ 0.198843 1 2 cbr 1000 ------- 2 1.0 2.0 126 126
r 0.19897 1 2 cbr 1000 ------- 2 1.0 2.0 110 110
+ 0.199295 1 2 cbr 1000 ------- 2 1.0 2.0 127 127
- 0.19937 1 2 cbr 1000 ------- 2 1.0 2.0 124 124
r 0.19977 1 2 cbr 1000 ------- 2 1.0 2.0 111 111
+ 0.199836 1 2 cbr 1000 ------- 2 1.0 2.0 128 128
- 0.20017 1 2 cbr 1000 ------- 2 1.0 2.0 125 125
r 0.20057 1 2 cbr 1000 ------- 2 1.0 2.0 112 112
+ 0.200933 1 2 cbr 1000 ------- 2 1.0 2.0 129 129
- 0.20097 1 2 cbr 1000 ------- 2 1.0 2.0 126 126
+ 0.201365 1 2 cbr 1000 ------- 2 1.0 2.0 130 130
r 0.20137 1 2 cbr 1000 ------- 2 1.0 2.0 113 113
- 0.20177 1 2 cbr 1000 ------- 2 1.0 2.0 127 127
r 0.20217 1 2 cbr 1000 ------- 2 1.0 2.0 114 114
+ 0.202227 1 2 cbr 1000 ------- 2 1.0 2.0 131 131
- 0.20257 1 2 cbr 1000 ------- 2 1.0 2.0 128 128
r 0.20297 1 2 cbr 1000 ------- 2 1.0 2.0 115 115
+ 0.203192 1 2 cbr 1000 ------- 2 1.0 2.0 132 132
- 0.20337 1 2 cbr 1000 ------- 2 1.0 2.0 129 129
r 0.20377 1 2 cbr 1000 ------- 2 1.0 2.0 116 116
+ 0.203774 1 2 cbr 1000 ------- 2 1.0 2.0 133 133
- 0.20417 1 2 cbr 1000 ------- 2 1.0 2.0 130 130
r 0.20457 1 2 cbr 1000 ------- 2 1.0 2.0 117 117
+ 0.204838 1 2 cbr 1000 ------- 2 1.0 2.0 134 134
- 0.20497 1 2 cbr 1000 ------- 2 1.0 2.0 131 131
+ 0.205285 1 2 cbr 1000 ------- 2 1.0 2.0 135 135
r 0.20537 1 2 cbr 1000 ------- 2 1.0 2.0 118 118
- 0.20577 1 2 cbr 1000 ------- 2 1.0 2.0 132 132
+ 0.205957 1 2 cbr 1000 ------- 2 1.0 2.0 136 136
r 0.20617 1 2 cbr 1000 ------- 2 1.0 2.0 119 119
- 0.20657 1 2 cbr 1000 ------- 2 1.0 2.0 133 133
r 0.20697 1 2 cbr 1000 ------- 2 1.0 2.0 120 120
+ 0.206992 1 2 cbr 1000 ------- 2 1.0 2.0 137 137
- 0.20737 1 2 cbr 1000 ------- 2 1.0 2.0 134 134
r 0.20777 1 2 cbr 1000 ------- 2 1.0 2.0 121 121
+ 0.207902 1 2 cbr 1000 ------- 2 1.0 2.0 138 138
- 0.20817 1 2 cbr 1000 ------- 2 1.0 2.0 135 135
r 0.20857 1 2 cbr 1000 ------- 2 1.0 2.0 122 122
+ 0.208649 1 2 cbr 1000 ------- 2 1.0 2.0 139 139
- 0.20897 1 2 cbr 1000 ------- 2 1.0 2.0 136 136
+ 0.209232 1 2 cbr 1000 ------- 2 1.0 2.0 140 140
r 0.20937 1 2 cbr 1000 ------- 2 1.0 2.0 123 123
- 0.20977 1 2 cbr 1000 ------- 2 1.0 2.0 137 137
+ 0.209985 1 2 cbr 1000 ------- 2 1.0 2.0 141 141
r 0.21017 1 2 cbr 1000 ------- 2 1.0 2.0 124 124
- 0.21057 1 2 cbr 1000 ------- 2 1.0 2.0 138 138
r 0.21097 1 2 cbr 1000 ------- 2 1.0 2.0 125 125
+ 0.211137 1 2 cbr 1000 ------- 2 1.0 2.0 142 142
- 0.21137 1 2 cbr 1000 ------- 2 1.0 2.0 139 139
r 0.21177 1 2 cbr 1000 ------- 2 1.0 2.0 126 126
+ 0.211905 1 2 cbr 1000 ------- 2 1.0 2.0 143 143
- 0.21217 1 2 cbr 1000 ------- 2 1.0 2.0 140 140
r 0.21257 1 2 cbr 1000 ------- 2 1.0 2.0 127 127
- 0.21297 1 2 cbr 1000 ------- 2 1.0 2.0 141 141
+ 0.213026 1 2 cbr 1000 ------- 2 1.0 2.0 144 144
r 0.21337 1 2 cbr 1000 ------- 2 1.0 2.0 128 128
- 0.21377 1 2 cbr 1000 ------- 2 1.0 2.0 142 142
r 0.21417 1 2 cbr 1000 ------- 2 1.0 2.0 129 129
+ 0.214192 1 2 cbr 1000 ------- 2 1.0 2.0 145 145
- 0.21457 1 2 cbr 1000 ------- 2 1.0 2.0 143 143
r 0.21497 1 2 cbr 1000 ------- 2 1.0 2.0 130 130
+ 0.215317 1 2 cbr 1000 ------- 2 1.0 2.0 146 146
- 0.21537 1 2 cbr 1000 ------- 2 1.0 2.0 144 144
r 0.21577 1 2 cbr 1000 ------- 2 1.0 2.0 131 131
+ 0.215838 1 2 cbr 1000 ------- 2 1.0 2.0 147 147
- 0.21617 1 2 cbr 1000 ------- 2 1.0 2.0 145 145
r 0.21657 1 2 cbr 1000 ------- 2 1.0 2.0 132 132
- 0.21697 1 2 cbr 1000 ------- 2 1.0 2.0 146 146
+ 0.216994 1 2 cbr 1000 ------- 2 1.0 2.0 148 148
r 0.21737 1 2 cbr 1000 ------- 2 1.0 2.0 133 133
- 0.21777 1 2 cbr 1000 ------- 2 1.0 2.0 147 147
+ 0.217827 1 2 cbr 1000 ------- 2 1.0 2.0 149 149
r 0.21817 1 2 cbr 1000 ------- 2 1.0 2.0 134 134
- 0.21857 1 2 cbr 1000 ------- 2 1.0 2.0 148 148
+ 0.218655 1 2 cbr 1000 ------- 2 1.0 2.0 150 150
r 0.21897 1 2 cbr 1000 ------- 2 1.0 2.0 135 135
+ 0.219108 1 2 cbr 1000 ------- 2 1.0 2.0 151 151
- 0.21937 1 2 cbr 1000 ------- 2 1.0 2.0 149 149
r 0.21977 1 2 cbr 1000 ------- 2 1.0 2.0 136 136
- 0.22017 1 2 cbr 1000 ------- 2 1.0 2.0 150 150
+ 0.220286 1 2 cbr 1000 ------- 2 1.0 2.0 152 152
r 0.22057 1 2 cbr 1000 ------- 2 1.0 2.0 137 137
- 0.22097 1 2 cbr 1000 ------- 2 1.0 2.0 151 151
+ 0.2211 1 2 cbr 1000 ------- 2 1.0 2.0 153 153
r 0.22137 1 2 cbr 1000 ------- 2 1.0 2.0 138 138
- 0.22177 1 2 cbr 1000 ------- 2 1.0 2.0 152 152
r 0.22217 1 2 cbr 1000 ------- 2 1.0 2.0 139 139
+ 0.222205 1 2 cbr 1000 ------- 2 1.0 2.0 154 154
- 0.22257 1 2 cbr 1000 ------- 2 1.0 2.0 153 153
r 0.22297 1 2 cbr 1000 ------- 2 1.0 2.0 140 140
+ 0.223189 1 2 cbr 1000 ------- 2 1.0 2.0 155 155
- 0.22337 1 2 cbr 1000 ------- 2 1.0 2.0 154 154
r 0.22377 1 2 cbr 1000 ------- 2 1.0 2.0 141 141
+ 0.223799 1 2 cbr 1000 ------- 2 1.0 2.0 156 156
- 0.22417 1 2 cbr 1000 ------- 2 1.0 2.0 155 155
r 0.22457 1 2 cbr 1000 ------- 2 1.0 2.0 142 142
+ 0.224583 1 2 cbr 1000 ------- 2 1.0 2.0 157 157
- 0.22497 1 2 cbr 1000 ------- 2 1.0 2.0 156 156
r 0.22537 1 2 cbr 1000 ------- 2 1.0 2.0 143 143
+ 0.225582 1 2 cbr 1000 ------- 2 1.0 2.0 158 158
- 0.22577 1 2 cbr 1000 ------- 2 1.0 2.0 157 157
+ 0.226147 1 2 cbr 1000 ------- 2 1.0 2.0 159 159
r 0.22617 1 2 cbr 1000 ------- 2 1.0 2.0 144 144
- 0.22657 1 2 cbr 1000 ------- 2 1.0 2.0 158 158
r 0.22697 1 2 cbr 1000 ------- 2 1.0 2.0 145 145
+ 0.227087 1 2 cbr 1000 ------- 2 1.0 2.0 160 160
- 0.22737 1 2 cbr 1000 ------- 2 1.0 2.0 159 159
r 0.22777 1 2 cbr 1000 ------- 2 1.0 2.0 146 146
+ 0.228013 1 2 cbr 1000 ------- 2 1.0 2.0 161 161
- 0.22817 1 2 cbr 1000 ------- 2 1.0 2.0 160 160
+ 0.228543 1 2 cbr 1000 ------- 2 1.0 2.0 162 162
r 0.22857 1 2 cbr 1000 ------- 2 1.0 2.0 147 147
- 0.22897 1 2 cbr 1000 ------- 2 1.0 2.0 161 161
+ 0.229154 1 2 cbr 1000 ------- 2 1.0 2.0 163 163
r 0.22937 1 2 cbr 1000 ------- 2 1.0 2.0 148 148
- 0.22977 1 2 cbr 1000 ------- 2 1.0 2.0 162 162
+ 0.229857 1 2 cbr 1000 ------- 2 1.0 2.0 164 164
r 0.23017 1 2 cbr 1000 ------- 2 1.0 2.0 149 149
- 0.23057 1 2 cbr 1000 ------- 2 1.0 2.0 163 163
+ 0.230747 1 2 cbr 1000 ------- 2 1.0 2.0 165 165
r 0.23097 1 2 cbr 1000 ------- 2 1.0 2.0 150 150
- 0.23137 1 2 cbr 1000 ------- 2 1.0 2.0 164 164
+ 0.231671 1 2 cbr 1000 ------- 2 1.0 2.0 166 166
r 0.23177 1 2 cbr 1000 ------- 2 1.0 2.0 151 151
- 0.23217 1 2 cbr 1000 ------- 2 1.0 2.0 165 165
r 0.23257 1 2 cbr 1000 ------- 2 1.0 2.0 152 152
+ 0.232755 1 2 cbr 1000 ------- 2 1.0 2.0 167 167
- 0.23297 1 2 cbr 1000 ------- 2 1.0 2.0 166 166
r 0.23337 1 2 cbr 1000 ------- 2 1.0 2.0 153 153
+ 0.233379 1 2 cbr 1000 ------- 2 1.0 2.0 168 168
- 0.23377 1 2 cbr 1000 ------- 2 1.0 2.0 167 167
+ 0.233912 1 2 cbr 1000 ------- 2 1.0 2.0 169 169
r 0.23417 1 2 cbr 1000 ------- 2 1.0 2.0 154 154
+ 0.234467 1 2 cbr 1000 ------- 2 1.0 2.0 170 170
- 0.23457 1 2 cbr 1000 ------- 2 1.0 2.0 168 168
+ 0.2349 1 2 cbr 1000 ------- 2 1.0 2.0 171 171
r 0.23497 1 2 cbr 1000 ------- 2 1.0 2.0 155 155
+ 0.235362 1 2 cbr 1000 ------- 2 1.0 2.0 172 172
- 0.23537 1 2 cbr 1000 ------- 2 1.0 2.0 169 169
r 0.23577 1 2 cbr 1000 ------- 2 1.0 2.0 156 156
+ 0.235857 1 2 cbr 1000 ------- 2 1.0 2.0 173 173
- 0.23617 1 2 cbr 1000 ------- 2 1.0 2.0 170 170
+ 0.2363 1 2 cbr 1000 ------- 2 1.0 2.0 174 174
r 0.23657 1 2 cbr 1000 ------- 2 1.0 2.0 157 157
- 0.23697 1 2 cbr 1000 ------- 2 1.0 2.0 171 171
+ 0.236988 1 2 cbr 1000 ------- 2 1.0 2.0 175 175
r 0.23737 1 2 cbr 1000 ------- 2 1.0 2.0 158 158
+ 0.237559 1 2 cbr 1000 ------- 2 1.0 2.0 176 176
- 0.23777 1 2 cbr 1000 ------- 2 1.0 2.0 172 172
+ 0.238003 1 2 cbr 1000 ------- 2 1.0 2.0 177 177
r 0.23817 1 2 cbr 1000 ------- 2 1.0 2.0 159 159
- 0.23857 1 2 cbr 1000 ------- 2 1.0 2.0 173 173
r 0.23897 1 2 cbr 1000 ------- 2 1.0 2.0 160 160
+ 0.239166 1 2 cbr 1000 ------- 2 1.0 2.0 178 178
- 0.23937 1 2 cbr 1000 ------- 2 1.0 2.0 174 174
r 0.23977 1 2 cbr 1000 ------- 2 1.0 2.0 161 161
- 0.24017 1 2 cbr 1000 ------- 2 1.0 2.0 175 175
+ 0.240224 1 2 cbr 1000 ------- 2 1.0 2.0 179 179
r 0.24057 1 2 cbr 1000 ------- 2 1.0 2.0 162 162
- 0.24097 1 2 cbr 1000 ------- 2 1.0 2.0 176 176
+ 0.241191 1 2 cbr 1000 ------- 2 1.0 2.0 180 180
r 0.24137 1 2 cbr 1000 ------- 2 1.0 2.0 163 163
- 0.24177 1 2 cbr 1000 ------- 2 1.0 2.0 177 177
+ 0.241935 1 2 cbr 1000 ------- 2 1.0 2.0 181 181
r 0.24217 1 2 cbr 1000 ------- 2 1.0 2.0 164 164
- 0.24257 1 2 cbr 1000 ------- 2 1.0 2.0 178 178
r 0.24297 1 2 cbr 1000 ------- 2 1.0 2.0 165 165
+ 0.242999 1 2 cbr 1000 ------- 2 1.0 2.0 182 182
- 0.24337 1 2 cbr 1000 ------- 2 1.0 2.0 179 179
+ 0.243714 1 2 cbr 1000 ------- 2 1.0 2.0 183 183
r 0.24377 1 2 cbr 1000 ------- 2 1.0 2.0 166 166
- 0.24417 1 2 cbr 1000 ------- 2 1.0 2.0 180 180
+ 0.244548 1 2 cbr 1000 ------- 2 1.0 2.0 184 184
r 0.24457 1 2 cbr 1000 ------- 2 1.0 2.0 167 167
- 0.24497 1 2 cbr 1000 ------- 2 1.0 2.0 181 181
+ 0.245052 1 2 cbr 1000 ------- 2 1.0 2.0 185 185
r 0.24537 1 2 cbr 1000 ------- 2 1.0 2.0 168 168
- 0.24577 1 2 cbr 1000 ------- 2 1.0 2.0 182 182
+ 0.245916 1 2 cbr 1000 ------- 2 1.0 2.0 186 186
r 0.24617 1 2 cbr 1000 ------- 2 1.0 2.0 169 169
- 0.24657 1 2 cbr 1000 ------- 2 1.0 2.0 183 183
+ 0.24665 1 2 cbr 1000 ------- 2 1.0 2.0 187 187
r 0.24697 1 2 cbr 1000 ------- 2 1.0 2.0 170 170
- 0.24737 1 2 cbr 1000 ------- 2 1.0 2.0 184 184
+ 0.247711 1 2 cbr 1000 ------- 2 1.0 2.0 188 188
r 0.24777 1 2 cbr 1000 ------- 2 1.0 2.0 171 171
- 0.24817 1 2 cbr 1000 ------- 2 1.0 2.0 185 185
r 0.24857 1 2 cbr 1000 ------- 2 1.0 2.0 172 172
+ 0.248756 1 2 cbr 1000 ------- 2 1.0 2.0 189 189
- 0.24897 1 2 cbr 1000 ------- 2 1.0 2.0 186 186
r 0.24937 1 2 cbr 1000 ------- 2 1.0 2.0 173 173
- 0.24977 1 2 cbr 1000 ------- 2 1.0 2.0 187 187
+ 0.249842 1 2 cbr 1000 ------- 2 1.0 2.0 190 190
r 0.25017 1 2 cbr 1000 ------- 2 1.0 2.0 174 174
+ 0.250245 1 2 cbr 1000 ------- 2 1.0 2.0 191 191
- 0.25057 1 2 cbr 1000 ------- 2 1.0 2.0 188 188
r 0.25097 1 2 cbr 1000 ------- 2 1.0 2.0 175 175
+ 0.25128 1 2 cbr 1000 ------- 2 1.0 2.0 192 192
- 0.25137 1 2 cbr 1000 ------- 2 1.0 2.0 189 189
+ 0.251741 1 2 cbr 1000 ------- 2 1.0 2.0 193 193
r 0.25177 1 2 cbr 1000 ------- 2 1.0 2.0 176 176
- 0.25217 1 2 cbr 1000 ------- 2 1.0 2.0 190 190
+ 0.25231 1 2 cbr 1000 ------- 2 1.0 2.0 194 194
r 0.25257 1 2 cbr 1000 ------- 2 1.0 2.0 177 177
- 0.25297 1 2 cbr 1000 ------- 2 1.0 2.0 191 191
r 0.25337 1 2 cbr 1000 ------- 2 1.0 2.0 178 178
+ 0.25338 1 2 cbr 1000 ------- 2 1.0 2.0 195 195
- 0.25377 1 2 cbr 1000 ------- 2 1.0 2.0 192 192
+ 0.254162 1 2 cbr 1000 ------- 2 1.0 2.0 196 196
r 0.25417 1 2 cbr 1000 ------- 2 1.0 2.0 179 179
- 0.25457 1 2 cbr 1000 ------- 2 1.0 2.0 193 193
+ 0.25469 1 2 cbr 1000 ------- 2 1.0 2.0 197 197
r 0.25497 1 2 cbr 1000 ------- 2 1.0 2.0 180 180
+ 0.255305 1 2 cbr 1000 ------- 2 1.0 2.0 198 198
- 0.25537 1 2 cbr 1000 ------- 2 1.0 2.0 194 194
+ 0.255721 1 2 cbr 1000 ------- 2 1.0 2.0 199 199
r 0.25577 1 2 cbr 1000 ------- 2 1.0 2.0 181 181
- 0.25617 1 2 cbr 1000 ------- 2 1.0 2.0 195 195
r 0.25657 1 2 cbr 1000 ------- 2 1.0 2.0 182 182
+ 0.256685 1 2 cbr 1000 ------- 2 1.0 2.0 200 200
- 0.25697 1 2 cbr 1000 ------- 2 1.0 2.0 196 196
r 0.25737 1 2 cbr 1000 ------- 2 1.0 2.0 183 183
+ 0.25743 1 2 cbr 1000 ------- 2 1.0 2.0 201 201
- 0.25777 1 2 cbr 1000 ------- 2 1.0 2.0 197 197
r 0.25817 1 2 cbr 1000 ------- 2 1.0 2.0 184 184
+ 0.25822 1 2 cbr 1000 ------- 2 1.0 2.0 202 202
- 0.25857 1 2 cbr 1000 ------- 2 1.0 2.0 198 198
+ 0.258866 1 2 cbr 1000 ------- 2 1.0 2.0 203 203
r 0.25897 1 2 cbr 1000 ------- 2 1.0 2.0 185 185
+ 0.259273 1 2 cbr 1000 ------- 2 1.0 2.0 204 204
- 0.25937 1 2 cbr 1000 ------- 2 1.0 2.0 199 199
r 0.25977 1 2 cbr 1000 ------- 2 1.0 2.0 186 186
- 0.26017 1 2 cbr 1000 ------- 2 1.0 2.0 200 200
+ 0.260225 1 2 cbr 1000 ------- 2 1.0 2.0 205 205
r 0.26057 1 2 cbr 1000 ------- 2 1.0 2.0 187 187
+ 0.260836 1 2 cbr 1000 ------- 2 1.0 2.0 206 206
- 0.26097 1 2 cbr 1000 ------- 2 1.0 2.0 201 201
r 0.26137 1 2 cbr 1000 ------- 2 1.0 2.0 188 188
+ 0.261611 1 2 cbr 1000 ------- 2 1.0 2.0 207 207
- 0.26177 1 2 cbr 1000 ------- 2 1.0 2.0 202 202
r 0.26217 1 2 cbr 1000 ------- 2 1.0 2.0 189 189
- 0.26257 1 2 cbr 1000 ------- 2 1.0 2.0 203 203
+ 0.26273 1 2 cbr 1000 ------- 2 1.0 2.0 208 208
r 0.26297 1 2 cbr 1000 ------- 2 1.0 2.0 190 190
- 0.26337 1 2 cbr 1000 ------- 2 1.0 2.0 204 204
+ 0.263412 1 2 cbr 1000 ------- 2 1.0 2.0 209 209
r 0.26377 1 2 cbr 1000 ------- 2 1.0 2.0 191 191
- 0.26417 1 2 cbr 1000 ------- 2 1.0 2.0 205 205
+ 0.264194 1 2 cbr 1000 ------- 2 1.0 2.0 210 210
r 0.26457 1 2 cbr 1000 ------- 2 1.0 2.0 192 192
+ 0.264626 1 2 cbr 1000 ------- 2 1.0 2.0 211 211
- 0.26497 1 2 cbr 1000 ------- 2 1.0 2.0 206 206
r 0.26537 1 2 cbr 1000 ------- 2 1.0 2.0 193 193
- 0.26577 1 2 cbr 1000 ------- 2 1.0 2.0 207 207
+ 0.265816 1 2 cbr 1000 ------- 2 1.0 2.0 212 212
r 0.26617 1 2 cbr 1000 ------- 2 1.0 2.0 194 194
+ 0.266562 1 2 cbr 1000 ------- 2 1.0 2.0 213 213
- 0.26657 1 2 cbr 1000 ------- 2 1.0 2.0 208 208
r 0.26697 1 2 cbr 1000 ------- 2 1.0 2.0 195 195
+ 0.267366 1 2 cbr 1000 ------- 2 1.0 2.0 214 214
- 0.26737 1 2 cbr 1000 ------- 2 1.0 2.0 209 209
r 0.26777 1 2 cbr 1000 ------- 2 1.0 2.0 196 196
- 0.26817 1 2 cbr 1000 ------- 2 1.0 2.0 210 210
+ 0.26828 1 2 cbr 1000 ------- 2 1.0 2.0 215 215
r 0.26857 1 2 cbr 1000 ------- 2 1.0 2.0 197 197
- 0.26897 1 2 cbr 1000 ------- 2 1.0 2.0 211 211