+ 0.5 1 2 cbr 1000 ------- 2 1.0 2.0 0 0
- 0.5 1 2 cbr 1000 ------- 2 1.0 2.0 0 0
+ 0.500411 1 2 cbr 1000 ------- 2 1.0 2.0 1 1
- 0.5008 1 2 cbr 1000 ------- 2 1.0 2.0 1 1
+ 0.500882 1 2 cbr 1000 ------- 2 1.0 2.0 2 2
- 0.5016 1 2 cbr 1000 ------- 2 1.0 2.0 2 2
+ 0.501635 1 2 cbr 1000 ------- 2 1.0 2.0 3 3
- 0.5024 1 2 cbr 1000 ------- 2 1.0 2.0 3 3
+ 0.502674 1 2 cbr 1000 ------- 2 1.0 2.0 4 4
- 0.5032 1 2 cbr 1000 ------- 2 1.0 2.0 4 4
+ 0.503324 1 2 cbr 1000 ------- 2 1.0 2.0 5 5
- 0.504 1 2 cbr 1000 ------- 2 1.0 2.0 5 5
+ 0.504378 1 2 cbr 1000 ------- 2 1.0 2.0 6 6
- 0.5048 1 2 cbr 1000 ------- 2 1.0 2.0 6 6
+ 0.504965 1 2 cbr 1000 ------- 2 1.0 2.0 7 7
- 0.5056 1 2 cbr 1000 ------- 2 1.0 2.0 7 7
+ 0.505876 1 2 cbr 1000 ------- 2 1.0 2.0 8 8
- 0.5064 1 2 cbr 1000 ------- 2 1.0 2.0 8 8
+ 0.506524 1 2 cbr 1000 ------- 2 1.0 2.0 9 9
- 0.5072 1 2 cbr 1000 ------- 2 1.0 2.0 9 9
+ 0.507593 1 2 cbr 1000 ------- 2 1.0 2.0 10 10
- 0.508 1 2 cbr 1000 ------- 2 1.0 2.0 10 10
+ 0.508124 1 2 cbr 1000 ------- 2 1.0 2.0 11 11
+ 0.508558 1 2 cbr 1000 ------- 2 1.0 2.0 12 12
- 0.5088 1 2 cbr 1000 ------- 2 1.0 2.0 11 11
+ 0.50947 1 2 cbr 1000 ------- 2 1.0 2.0 13 13
- 0.5096 1 2 cbr 1000 ------- 2 1.0 2.0 12 12
+ 0.509961 1 2 cbr 1000 ------- 2 1.0 2.0 14 14
- 0.5104 1 2 cbr 1000 ------- 2 1.0 2.0 13 13
r 0.5108 1 2 cbr 1000 ------- 2 1.0 2.0 0 0
+ 0.511049 1 2 cbr 1000 ------- 2 1.0 2.0 15 15
- 0.5112 1 2 cbr 1000 ------- 2 1.0 2.0 14 14
r 0.5116 1 2 cbr 1000 ------- 2 1.0 2.0 1 1
+ 0.511788 1 2 cbr 1000 ------- 2 1.0 2.0 16 16
- 0.512 1 2 cbr 1000 ------- 2 1.0 2.0 15 15
+ 0.512328 1 2 cbr 1000 ------- 2 1.0 2.0 17 17
r 0.5124 1 2 cbr 1000 ------- 2 1.0 2.0 2 2
- 0.5128 1 2 cbr 1000 ------- 2 1.0 2.0 16 16
+ 0.512803 1 2 cbr 1000 ------- 2 1.0 2.0 18 18
r 0.5132 1 2 cbr 1000 ------- 2 1.0 2.0 3 3
- 0.5136 1 2 cbr 1000 ------- 2 1.0 2.0 17 17
+ 0.513849 1 2 cbr 1000 ------- 2 1.0 2.0 19 19
r 0.514 1 2 cbr 1000 ------- 2 1.0 2.0 4 4
- 0.5144 1 2 cbr 1000 ------- 2 1.0 2.0 18 18
+ 0.514528 1 2 cbr 1000 ------- 2 1.0 2.0 20 20
r 0.5148 1 2 cbr 1000 ------- 2 1.0 2.0 5 5
+ 0.515134 1 2 cbr 1000 ------- 2 1.0 2.0 21 21
- 0.5152 1 2 cbr 1000 ------- 2 1.0 2.0 19 19
r 0.5156 1 2 cbr 1000 ------- 2 1.0 2.0 6 6
+ 0.515861 1 2 cbr 1000 ------- 2 1.0 2.0 22 22
- 0.516 1 2 cbr 1000 ------- 2 1.0 2.0 20 20
r 0.5164 1 2 cbr 1000 ------- 2 1.0 2.0 7 7
+ 0.516676 1 2 cbr 1000 ------- 2 1.0 2.0 23 23
- 0.5168 1 2 cbr 1000 ------- 2 1.0 2.0 21 21
r 0.5172 1 2 cbr 1000 ------- 2 1.0 2.0 8 8
+ 0.517449 1 2 cbr 1000 ------- 2 1.0 2.0 24 24
- 0.5176 1 2 cbr 1000 ------- 2 1.0 2.0 22 22
r 0.518 1 2 cbr 1000 ------- 2 1.0 2.0 9 9
- 0.5184 1 2 cbr 1000 ------- 2 1.0 2.0 23 23
+ 0.518403 1 2 cbr 1000 ------- 2 1.0 2.0 25 25
r 0.5188 1 2 cbr 1000 ------- 2 1.0 2.0 10 10
- 0.5192 1 2 cbr 1000 ------- 2 1.0 2.0 24 24
+ 0.519493 1 2 cbr 1000 ------- 2 1.0 2.0 26 26
r 0.5196 1 2 cbr 1000 ------- 2 1.0 2.0 11 11
- 0.52 1 2 cbr 1000 ------- 2 1.0 2.0 25 25
r 0.5204 1 2 cbr 1000 ------- 2 1.0 2.0 12 12
+ 0.520564 1 2 cbr 1000 ------- 2 1.0 2.0 27 27
- 0.5208 1 2 cbr 1000 ------- 2 1.0 2.0 26 26
+ 0.521138 1 2 cbr 1000 ------- 2 1.0 2.0 28 28
r 0.5212 1 2 cbr 1000 ------- 2 1.0 2.0 13 13
- 0.5216 1 2 cbr 1000 ------- 2 1.0 2.0 27 27
+ 0.521731 1 2 cbr 1000 ------- 2 1.0 2.0 29 29
r 0.522 1 2 cbr 1000 ------- 2 1.0 2.0 14 14
- 0.5224 1 2 cbr 1000 ------- 2 1.0 2.0 28 28
r 0.5228 1 2 cbr 1000 ------- 2 1.0 2.0 15 15
+ 0.522812 1 2 cbr 1000 ------- 2 1.0 2.0 30 30
- 0.5232 1 2 cbr 1000 ------- 2 1.0 2.0 29 29
r 0.5236 1 2 cbr 1000 ------- 2 1.0 2.0 16 16
+ 0.523754 1 2 cbr 1000 ------- 2 1.0 2.0 31 31
- 0.524 1 2 cbr 1000 ------- 2 1.0 2.0 30 30
r 0.5244 1 2 cbr 1000 ------- 2 1.0 2.0 17 17
+ 0.524764 1 2 cbr 1000 ------- 2 1.0 2.0 32 32
- 0.5248 1 2 cbr 1000 ------- 2 1.0 2.0 31 31
r 0.5252 1 2 cbr 1000 ------- 2 1.0 2.0 18 18
- 0.5256 1 2 cbr 1000 ------- 2 1.0 2.0 32 32
+ 0.525888 1 2 cbr 1000 ------- 2 1.0 2.0 33 33
r 0.526 1 2 cbr 1000 ------- 2 1.0 2.0 19 19
- 0.5264 1 2 cbr 1000 ------- 2 1.0 2.0 33 33
+ 0.526612 1 2 cbr 1000 ------- 2 1.0 2.0 34 34
r 0.5268 1 2 cbr 1000 ------- 2 1.0 2.0 20 20
+ 0.527099 1 2 cbr 1000 ------- 2 1.0 2.0 35 35
- 0.5272 1 2 cbr 1000 ------- 2 1.0 2.0 34 34
r 0.5276 1 2 cbr 1000 ------- 2 1.0 2.0 21 21
+ 0.527823 1 2 cbr 1000 ------- 2 1.0 2.0 36 36
- 0.528 1 2 cbr 1000 ------- 2 1.0 2.0 35 35
+ 0.528373 1 2 cbr 1000 ------- 2 1.0 2.0 37 37
r 0.5284 1 2 cbr 1000 ------- 2 1.0 2.0 22 22
- 0.5288 1 2 cbr 1000 ------- 2 1.0 2.0 36 36
r 0.5292 1 2 cbr 1000 ------- 2 1.0 2.0 23 23
+ 0.529483 1 2 cbr 1000 ------- 2 1.0 2.0 38 38
- 0.5296 1 2 cbr 1000 ------- 2 1.0 2.0 37 37
r 0.53 1 2 cbr 1000 ------- 2 1.0 2.0 24 24
- 0.5304 1 2 cbr 1000 ------- 2 1.0 2.0 38 38
+ 0.53064 1 2 cbr 1000 ------- 2 1.0 2.0 39 39
r 0.5308 1 2 cbr 1000 ------- 2 1.0 2.0 25 25
- 0.5312 1 2 cbr 1000 ------- 2 1.0 2.0 39 39
r 0.5316 1 2 cbr 1000 ------- 2 1.0 2.0 26 26
+ 0.531753 1 2 cbr 1000 ------- 2 1.0 2.0 40 40
- 0.532 1 2 cbr 1000 ------- 2 1.0 2.0 40 40
+ 0.532242 1 2 cbr 1000 ------- 2 1.0 2.0 41 41
r 0.5324 1 2 cbr 1000 ------- 2 1.0 2.0 27 27
+ 0.532689 1 2 cbr 1000 ------- 2 1.0 2.0 42 42
- 0.5328 1 2 cbr 1000 ------- 2 1.0 2.0 41 41
+ 0.533098 1 2 cbr 1000 ------- 2 1.0 2.0 43 43
r 0.5332 1 2 cbr 1000 ------- 2 1.0 2.0 28 28
- 0.5336 1 2 cbr 1000 ------- 2 1.0 2.0 42 42
+ 0.533974 1 2 cbr 1000 ------- 2 1.0 2.0 44 44
r 0.534 1 2 cbr 1000 ------- 2 1.0 2.0 29 29
- 0.5344 1 2 cbr 1000 ------- 2 1.0 2.0 43 43
+ 0.534642 1 2 cbr 1000 ------- 2 1.0 2.0 45 45
r 0.5348 1 2 cbr 1000 ------- 2 1.0 2.0 30 30
+ 0.535141 1 2 cbr 1000 ------- 2 1.0 2.0 46 46
- 0.5352 1 2 cbr 1000 ------- 2 1.0 2.0 44 44
r 0.5356 1 2 cbr 1000 ------- 2 1.0 2.0 31 31
- 0.536 1 2 cbr 1000 ------- 2 1.0 2.0 45 45
+ 0.536076 1 2 cbr 1000 ------- 2 1.0 2.0 47 47
r 0.5364 1 2 cbr 1000 ------- 2 1.0 2.0 32 32
+ 0.536681 1 2 cbr 1000 ------- 2 1.0 2.0 48 48
- 0.5368 1 2 cbr 1000 ------- 2 1.0 2.0 46 46
r 0.5372 1 2 cbr 1000 ------- 2 1.0 2.0 33 33
- 0.5376 1 2 cbr 1000 ------- 2 1.0 2.0 47 47
+ 0.53764 1 2 cbr 1000 ------- 2 1.0 2.0 49 49
r 0.538 1 2 cbr 1000 ------- 2 1.0 2.0 34 34
- 0.5384 1 2 cbr 1000 ------- 2 1.0 2.0 48 48
+ 0.538476 1 2 cbr 1000 ------- 2 1.0 2.0 50 50
r 0.5388 1 2 cbr 1000 ------- 2 1.0 2.0 35 35
- 0.5392 1 2 cbr 1000 ------- 2 1.0 2.0 49 49
+ 0.539577 1 2 cbr 1000 ------- 2 1.0 2.0 51 51
r 0.5396 1 2 cbr 1000 ------- 2 1.0 2.0 36 36
- 0.54 1 2 cbr 1000 ------- 2 1.0 2.0 50 50
+ 0.540187 1 2 cbr 1000 ------- 2 1.0 2.0 52 52
r 0.5404 1 2 cbr 1000 ------- 2 1.0 2.0 37 37
- 0.5408 1 2 cbr 1000 ------- 2 1.0 2.0 51 51
+ 0.541031 1 2 cbr 1000 ------- 2 1.0 2.0 53 53
r 0.5412 1 2 cbr 1000 ------- 2 1.0 2.0 38 38
- 0.5416 1 2 cbr 1000 ------- 2 1.0 2.0 52 52
+ 0.541771 1 2 cbr 1000 ------- 2 1.0 2.0 54 54
r 0.542 1 2 cbr 1000 ------- 2 1.0 2.0 39 39
+ 0.542193 1 2 cbr 1000 ------- 2 1.0 2.0 55 55
- 0.5424 1 2 cbr 1000 ------- 2 1.0 2.0 53 53
r 0.5428 1 2 cbr 1000 ------- 2 1.0 2.0 40 40
+ 0.542855 1 2 cbr 1000 ------- 2 1.0 2.0 56 56
- 0.5432 1 2 cbr 1000 ------- 2 1.0 2.0 54 54
+ 0.543404 1 2 cbr 1000 ------- 2 1.0 2.0 57 57
r 0.5436 1 2 cbr 1000 ------- 2 1.0 2.0 41 41
- 0.544 1 2 cbr 1000 ------- 2 1.0 2.0 55 55
r 0.5444 1 2 cbr 1000 ------- 2 1.0 2.0 42 42
+ 0.544432 1 2 cbr 1000 ------- 2 1.0 2.0 58 58
- 0.5448 1 2 cbr 1000 ------- 2 1.0 2.0 56 56
r 0.5452 1 2 cbr 1000 ------- 2 1.0 2.0 43 43
+ 0.54559 1 2 cbr 1000 ------- 2 1.0 2.0 59 59
- 0.5456 1 2 cbr 1000 ------- 2 1.0 2.0 57 57
r 0.546 1 2 cbr 1000 ------- 2 1.0 2.0 44 44
- 0.5464 1 2 cbr 1000 ------- 2 1.0 2.0 58 58
+ 0.546608 1 2 cbr 1000 ------- 2 1.0 2.0 60 60
r 0.5468 1 2 cbr 1000 ------- 2 1.0 2.0 45 45
+ 0.547173 1 2 cbr 1000 ------- 2 1.0 2.0 61 61
- 0.5472 1 2 cbr 1000 ------- 2 1.0 2.0 59 59
r 0.5476 1 2 cbr 1000 ------- 2 1.0 2.0 46 46
- 0.548 1 2 cbr 1000 ------- 2 1.0 2.0 60 60
+ 0.548129 1 2 cbr 1000 ------- 2 1.0 2.0 62 62
r 0.5484 1 2 cbr 1000 ------- 2 1.0 2.0 47 47
+ 0.548672 1 2 cbr 1000 ------- 2 1.0 2.0 63 63
- 0.5488 1 2 cbr 1000 ------- 2 1.0 2.0 61 61
r 0.5492 1 2 cbr 1000 ------- 2 1.0 2.0 48 48
- 0.5496 1 2 cbr 1000 ------- 2 1.0 2.0 62 62
+ 0.549853 1 2 cbr 1000 ------- 2 1.0 2.0 64 64
r 0.55 1 2 cbr 1000 ------- 2 1.0 2.0 49 49
+ 0.550326 1 2 cbr 1000 ------- 2 1.0 2.0 65 65
- 0.5504 1 2 cbr 1000 ------- 2 1.0 2.0 63 63
r 0.5508 1 2 cbr 1000 ------- 2 1.0 2.0 50 50
+ 0.551119 1 2 cbr 1000 ------- 2 1.0 2.0 66 66
- 0.5512 1 2 cbr 1000 ------- 2 1.0 2.0 64 64
+ 0.551559 1 2 cbr 1000 ------- 2 1.0 2.0 67 67
r 0.5516 1 2 cbr 1000 ------- 2 1.0 2.0 51 51
- 0.552 1 2 cbr 1000 ------- 2 1.0 2.0 65 65
r 0.5524 1 2 cbr 1000 ------- 2 1.0 2.0 52 52
+ 0.552652 1 2 cbr 1000 ------- 2 1.0 2.0 68 68
- 0.5528 1 2 cbr 1000 ------- 2 1.0 2.0 66 66
r 0.5532 1 2 cbr 1000 ------- 2 1.0 2.0 53 53
+ 0.553478 1 2 cbr 1000 ------- 2 1.0 2.0 69 69
- 0.5536 1 2 cbr 1000 ------- 2 1.0 2.0 67 67
r 0.554 1 2 cbr 1000 ------- 2 1.0 2.0 54 54
- 0.5544 1 2 cbr 1000 ------- 2 1.0 2.0 68 68
+ 0.554466 1 2 cbr 1000 ------- 2 1.0 2.0 70 70
r 0.5548 1 2 cbr 1000 ------- 2 1.0 2.0 55 55
- 0.5552 1 2 cbr 1000 ------- 2 1.0 2.0 69 69
+ 0.555203 1 2 cbr 1000 ------- 2 1.0 2.0 71 71
r 0.5556 1 2 cbr 1000 ------- 2 1.0 2.0 56 56
+ 0.555673 1 2 cbr 1000 ------- 2 1.0 2.0 72 72
- 0.556 1 2 cbr 1000 ------- 2 1.0 2.0 70 70
r 0.5564 1 2 cbr 1000 ------- 2 1.0 2.0 57 57
+ 0.556725 1 2 cbr 1000 ------- 2 1.0 2.0 73 73
- 0.5568 1 2 cbr 1000 ------- 2 1.0 2.0 71 71
r 0.5572 1 2 cbr 1000 ------- 2 1.0 2.0 58 58
- 0.5576 1 2 cbr 1000 ------- 2 1.0 2.0 72 72
+ 0.557847 1 2 cbr 1000 ------- 2 1.0 2.0 74 74
r 0.558 1 2 cbr 1000 ------- 2 1.0 2.0 59 59
- 0.5584 1 2 cbr 1000 ------- 2 1.0 2.0 73 73
r 0.5588 1 2 cbr 1000 ------- 2 1.0 2.0 60 60
+ 0.55883 1 2 cbr 1000 ------- 2 1.0 2.0 75 75
- 0.5592 1 2 cbr 1000 ------- 2 1.0 2.0 74 74
r 0.5596 1 2 cbr 1000 ------- 2 1.0 2.0 61 61
+ 0.559929 1 2 cbr 1000 ------- 2 1.0 2.0 76 76
- 0.56 1 2 cbr 1000 ------- 2 1.0 2.0 75 75
r 0.5604 1 2 cbr 1000 ------- 2 1.0 2.0 62 62
+ 0.560798 1 2 cbr 1000 ------- 2 1.0 2.0 77 77
- 0.5608 1 2 cbr 1000 ------- 2 1.0 2.0 76 76
r 0.5612 1 2 cbr 1000 ------- 2 1.0 2.0 63 63
- 0.5616 1 2 cbr 1000 ------- 2 1.0 2.0 77 77
+ 0.561787 1 2 cbr 1000 ------- 2 1.0 2.0 78 78
r 0.562 1 2 cbr 1000 ------- 2 1.0 2.0 64 64
- 0.5624 1 2 cbr 1000 ------- 2 1.0 2.0 78 78
r 0.5628 1 2 cbr 1000 ------- 2 1.0 2.0 65 65
+ 0.562829 1 2 cbr 1000 ------- 2 1.0 2.0 79 79
- 0.5632 1 2 cbr 1000 ------- 2 1.0 2.0 79 79
+ 0.563513 1 2 cbr 1000 ------- 2 1.0 2.0 80 80
r 0.5636 1 2 cbr 1000 ------- 2 1.0 2.0 66 66
- 0.564 1 2 cbr 1000 ------- 2 1.0 2.0 80 80
+ 0.56436 1 2 cbr 1000 ------- 2 1.0 2.0 81 81
r 0.5644 1 2 cbr 1000 ------- 2 1.0 2.0 67 67
- 0.5648 1 2 cbr 1000 ------- 2 1.0 2.0 81 81
r 0.5652 1 2 cbr 1000 ------- 2 1.0 2.0 68 68
+ 0.565413 1 2 cbr 1000 ------- 2 1.0 2.0 82 82
- 0.5656 1 2 cbr 1000 ------- 2 1.0 2.0 82 82
r 0.566 1 2 cbr 1000 ------- 2 1.0 2.0 69 69
+ 0.56644 1 2 cbr 1000 ------- 2 1.0 2.0 83 83
- 0.56644 1 2 cbr 1000 ------- 2 1.0 2.0 83 83
r 0.5668 1 2 cbr 1000 ------- 2 1.0 2.0 70 70
+ 0.56737 1 2 cbr 1000 ------- 2 1.0 2.0 84 84
- 0.56737 1 2 cbr 1000 ------- 2 1.0 2.0 84 84
r 0.5676 1 2 cbr 1000 ------- 2 1.0 2.0 71 71
+ 0.56789 1 2 cbr 1000 ------- 2 1.0 2.0 85 85
- 0.56817 1 2 cbr 1000 ------- 2 1.0 2.0 85 85
r 0.5684 1 2 cbr 1000 ------- 2 1.0 2.0 72 72
+ 0.568616 1 2 cbr 1000 ------- 2 1.0 2.0 86 86
- 0.56897 1 2 cbr 1000 ------- 2 1.0 2.0 86 86
r 0.5692 1 2 cbr 1000 ------- 2 1.0 2.0 73 73
+ 0.569452 1 2 cbr 1000 ------- 2 1.0 2.0 87 87
- 0.56977 1 2 cbr 1000 ------- 2 1.0 2.0 87 87
r 0.57 1 2 cbr 1000 ------- 2 1.0 2.0 74 74
+ 0.570151 1 2 cbr 1000 ------- 2 1.0 2.0 88 88
+ 0.570551 1 2 cbr 1000 ------- 2 1.0 2.0 89 89
- 0.57057 1 2 cbr 1000 ------- 2 1.0 2.0 88 88
r 0.5708 1 2 cbr 1000 ------- 2 1.0 2.0 75 75
+ 0.571018 1 2 cbr 1000 ------- 2 1.0 2.0 90 90
- 0.57137 1 2 cbr 1000 ------- 2 1.0 2.0 89 89
r 0.5716 1 2 cbr 1000 ------- 2 1.0 2.0 76 76
+ 0.571684 1 2 cbr 1000 ------- 2 1.0 2.0 91 91
- 0.57217 1 2 cbr 1000 ------- 2 1.0 2.0 90 90
r 0.5724 1 2 cbr 1000 ------- 2 1.0 2.0 77 77
+ 0.572641 1 2 cbr 1000 ------- 2 1.0 2.0 92 92
- 0.57297 1 2 cbr 1000 ------- 2 1.0 2.0 91 91
r 0.5732 1 2 cbr 1000 ------- 2 1.0 2.0 78 78
+ 0.57377 1 2 cbr 1000 ------- 2 1.0 2.0 93 93
- 0.57377 1 2 cbr 1000 ------- 2 1.0 2.0 92 92
r 0.574 1 2 cbr 1000 ------- 2 1.0 2.0 79 79
+ 0.574196 1 2 cbr 1000 ------- 2 1.0 2.0 94 94
- 0.57457 1 2 cbr 1000 ------- 2 1.0 2.0 93 93
r 0.5748 1 2 cbr 1000 ------- 2 1.0 2.0 80 80
+ 0.574889 1 2 cbr 1000 ------- 2 1.0 2.0 95 95
- 0.57537 1 2 cbr 1000 ------- 2 1.0 2.0 94 94
+ 0.575533 1 2 cbr 1000 ------- 2 1.0 2.0 96 96
r 0.5756 1 2 cbr 1000 ------- 2 1.0 2.0 81 81
+ 0.575935 1 2 cbr 1000 ------- 2 1.0 2.0 97 97
- 0.57617 1 2 cbr 1000 ------- 2 1.0 2.0 95 95
r 0.5764 1 2 cbr 1000 ------- 2 1.0 2.0 82 82
+ 0.576593 1 2 cbr 1000 ------- 2 1.0 2.0 98 98
- 0.57697 1 2 cbr 1000 ------- 2 1.0 2.0 96 96
r 0.57724 1 2 cbr 1000 ------- 2 1.0 2.0 83 83
+ 0.577698 1 2 cbr 1000 ------- 2 1.0 2.0 99 99
- 0.57777 1 2 cbr 1000 ------- 2 1.0 2.0 97 97
r 0.57817 1 2 cbr 1000 ------- 2 1.0 2.0 84 84
- 0.57857 1 2 cbr 1000 ------- 2 1.0 2.0 98 98
+ 0.578802 1 2 cbr 1000 ------- 2 1.0 2.0 100 100
r 0.57897 1 2 cbr 1000 ------- 2 1.0 2.0 85 85
- 0.57937 1 2 cbr 1000 ------- 2 1.0 2.0 99 99
r 0.57977 1 2 cbr 1000 ------- 2 1.0 2.0 86 86
+ 0.579846 1 2 cbr 1000 ------- 2 1.0 2.0 101 101
- 0.58017 1 2 cbr 1000 ------- 2 1.0 2.0 100 100
+ 0.580383 1 2 cbr 1000 ------- 2 1.0 2.0 102 102
r 0.58057 1 2 cbr 1000 ------- 2 1.0 2.0 87 87
+ 0.580809 1 2 cbr 1000 ------- 2 1.0 2.0 103 103
- 0.58097 1 2 cbr 1000 ------- 2 1.0 2.0 101 101
r 0.58137 1 2 cbr 1000 ------- 2 1.0 2.0 88 88
- 0.58177 1 2 cbr 1000 ------- 2 1.0 2.0 102 102
+ 0.581813 1 2 cbr 1000 ------- 2 1.0 2.0 104 104
r 0.58217 1 2 cbr 1000 ------- 2 1.0 2.0 89 89
- 0.58257 1 2 cbr 1000 ------- 2 1.0 2.0 103 103
+ 0.582705 1 2 cbr 1000 ------- 2 1.0 2.0 105 105
r 0.58297 1 2 cbr 1000 ------- 2 1.0 2.0 90 90
- 0.58337 1 2 cbr 1000 ------- 2 1.0 2.0 104 104
+ 0.583737 1 2 cbr 1000 ------- 2 1.0 2.0 106 106
r 0.58377 1 2 cbr 1000 ------- 2 1.0 2.0 91 91
- 0.58417 1 2 cbr 1000 ------- 2 1.0 2.0 105 105
+ 0.584554 1 2 cbr 1000 ------- 2 1.0 2.0 107 107
r 0.58457 1 2 cbr 1000 ------- 2 1.0 2.0 92 92
- 0.58497 1 2 cbr 1000 ------- 2 1.0 2.0 106 106
+ 0.585315 1 2 cbr 1000 ------- 2 1.0 2.0 108 108
r 0.58537 1 2 cbr 1000 ------- 2 1.0 2.0 93 93
- 0.58577 1 2 cbr 1000 ------- 2 1.0 2.0 107 107
+ 0.585881 1 2 cbr 1000 ------- 2 1.0 2.0 109 109
r 0.58617 1 2 cbr 1000 ------- 2 1.0 2.0 94 94
+ 0.586293 1 2 cbr 1000 ------- 2 1.0 2.0 110 110
- 0.58657 1 2 cbr 1000 ------- 2 1.0 2.0 108 108
r 0.58697 1 2 cbr 1000 ------- 2 1.0 2.0 95 95
+ 0.587045 1 2 cbr 1000 ------- 2 1.0 2.0 111 111
- 0.58737 1 2 cbr 1000 ------- 2 1.0 2.0 109 109
r 0.58777 1 2 cbr 1000 ------- 2 1.0 2.0 96 96
+ 0.587795 1 2 cbr 1000 ------- 2 1.0 2.0 112 112
- 0.58817 1 2 cbr 1000 ------- 2 1.0 2.0 110 110
+ 0.58846 1 2 cbr 1000 ------- 2 1.0 2.0 113 113
r 0.58857 1 2 cbr 1000 ------- 2 1.0 2.0 97 97
+ 0.588955 1 2 cbr 1000 ------- 2 1.0 2.0 114 114
- 0.58897 1 2 cbr 1000 ------- 2 1.0 2.0 111 111
r 0.58937 1 2 cbr 1000 ------- 2 1.0 2.0 98 98
- 0.58977 1 2 cbr 1000 ------- 2 1.0 2.0 112 112
+ 0.590075 1 2 cbr 1000 ------- 2 1.0 2.0 115 115
r 0.59017 1 2 cbr 1000 ------- 2 1.0 2.0 99 99
- 0.59057 1 2 cbr 1000 ------- 2 1.0 2.0 113 113
+ 0.590646 1 2 cbr 1000 ------- 2 1.0 2.0 116 116
r 0.59097 1 2 cbr 1000 ------- 2 1.0 2.0 100 100
- 0.59137 1 2 cbr 1000 ------- 2 1.0 2.0 114 114
+ 0.591391 1 2 cbr 1000 ------- 2 1.0 2.0 117 117
r 0.59177 1 2 cbr 1000 ------- 2 1.0 2.0 101 101
+ 0.592129 1 2 cbr 1000 ------- 2 1.0 2.0 118 118
- 0.59217 1 2 cbr 1000 ------- 2 1.0 2.0 115 115
r 0.59257 1 2 cbr 1000 ------- 2 1.0 2.0 102 102
+ 0.592855 1 2 cbr 1000 ------- 2 1.0 2.0 119 119
- 0.59297 1 2 cbr 1000 ------- 2 1.0 2.0 116 116
r 0.59337 1 2 cbr 1000 ------- 2 1.0 2.0 103 103
- 0.59377 1 2 cbr 1000 ------- 2 1.0 2.0 117 117
+ 0.593844 1 2 cbr 1000 ------- 2 1.0 2.0 120 120
r 0.59417 1 2 cbr 1000 ------- 2 1.0 2.0 104 104
- 0.59457 1 2 cbr 1000 ------- 2 1.0 2.0 118 118
+ 0.594631 1 2 cbr 1000 ------- 2 1.0 2.0 121 121
r 0.59497 1 2 cbr 1000 ------- 2 1.0 2.0 105 105
- 0.59537 1 2 cbr 1000 ------- 2 1.0 2.0 119 119
+ 0.595749 1 2 cbr 1000 ------- 2 1.0 2.0 122 122
r 0.59577 1 2 cbr 1000 ------- 2 1.0 2.0 106 106
- 0.59617 1 2 cbr 1000 ------- 2 1.0 2.0 120 120
r 0.59657 1 2 cbr 1000 ------- 2 1.0 2.0 107 107
+ 0.596647 1 2 cbr 1000 ------- 2 1.0 2.0 123 123
- 0.59697 1 2 cbr 1000 ------- 2 1.0 2.0 121 121
r 0.59737 1 2 cbr 1000 ------- 2 1.0 2.0 108 108
+ 0.597728 1 2 cbr 1000 ------- 2 1.0 2.0 124 124
- 0.59777 1 2 cbr 1000 ------- 2 1.0 2.0 122 122
r 0.59817 1 2 cbr 1000 ------- 2 1.0 2.0 109 109
+ 0.598255 1 2 cbr 1000 ------- 2 1.0 2.0 125 125
- 0.59857 1 2 cbr 1000 ------- 2 1.0 2.0 123 123
+ 0.598843 1 2 cbr 1000 ------- 2 1.0 2.0 126 126
r 0.59897 1 2 cbr 1000 ------- 2 1.0 2.0 110 110
+ 0.599295 1 2 cbr 1000 ------- 2 1.0 2.0 127 127
- 0.59937 1 2 cbr 1000 ------- 2 1.0 2.0 124 124
r 0.59977 1 2 cbr 1000 ------- 2 1.0 2.0 111 111
+ 0.599836 1 2 cbr 1000 ------- 2 1.0 2.0 128 128
- 0.60017 1 2 cbr 1000 ------- 2 1.0 2.0 125 125
r 0.60057 1 2 cbr 1000 ------- 2 1.0 2.0 112 112
+ 0.600933 1 2 cbr 1000 ------- 2 1.0 2.0 129 129
- 0.60097 1 2 cbr 1000 ------- 2 1.0 2.0 126 126
+ 0.601365 1 2 cbr 1000 ------- 2 1.0 2.0 130 130
r 0.60137 1 2 cbr 1000 ------- 2 1.0 2.0 113 113
- 0.60177 1 2 cbr 1000 ------- 2 1.0 2.0 127 127
r 0.60217 1 2 cbr 1000 ------- 2 1.0 2.0 114 114
+ 0.602227 1 2 cbr 1000 ------- 2 1.0 2.0 131 131
- 0.60257 1 2 cbr 1000 ------- 2 1.0 2.0 128 128
r 0.60297 1 2 cbr 1000 ------- 2 1.0 2.0 115 115
+ 0.603192 1 2 cbr 1000 ------- 2 1.0 2.0 132 132
- 0.60337 1 2 cbr 1000 ------- 2 1.0 2.0 129 129
r 0.60377 1 2 cbr 1000 ------- 2 1.0 2.0 116 116
+ 0.603774 1 2 cbr 1000 ------- 2 1.0 2.0 133 133
- 0.60417 1 2 cbr 1000 ------- 2 1.0 2.0 130 130
r 0.60457 1 2 cbr 1000 ------- 2 1.0 2.0 117 117
+ 0.604838 1 2 cbr 1000 ------- 2 1.0 2.0 134 134
- 0.60497 1 2 cbr 1000 ------- 2 1.0 2.0 131 131
+ 0.605285 1 2 cbr 1000 ------- 2 1.0 2.0 135 135
r 0.60537 1 2 cbr 1000 ------- 2 1.0 2.0 118 118
- 0.60577 1 2 cbr 1000 ------- 2 1.0 2.0 132 132
+ 0.605957 1 2 cbr 1000 ------- 2 1.0 2.0 136 136
r 0.60617 1 2 cbr 1000 ------- 2 1.0 2.0 119 119
- 0.60657 1 2 cbr 1000 ------- 2 1.0 2.0 133 133
r 0.60697 1 2 cbr 1000 ------- 2 1.0 2.0 120 120
+ 0.606992 1 2 cbr 1000 ------- 2 1.0 2.0 137 137
- 0.60737 1 2 cbr 1000 ------- 2 1.0 2.0 134 134
r 0.60777 1 2 cbr 1000 ------- 2 1.0 2.0 121 121
+ 0.607902 1 2 cbr 1000 ------- 2 1.0 2.0 138 138
- 0.60817 1 2 cbr 1000 ------- 2 1.0 2.0 135 135
r 0.60857 1 2 cbr 1000 ------- 2 1.0 2.0 122 122
+ 0.608649 1 2 cbr 1000 ------- 2 1.0 2.0 139 139
- 0.60897 1 2 cbr 1000 ------- 2 1.0 2.0 136 136
+ 0.609232 1 2 cbr 1000 ------- 2 1.0 2.0 140 140
r 0.60937 1 2 cbr 1000 ------- 2 1.0 2.0 123 123
- 0.60977 1 2 cbr 1000 ------- 2 1.0 2.0 137 137
+ 0.609985 1 2 cbr 1000 ------- 2 1.0 2.0 141 141
r 0.61017 1 2 cbr 1000 ------- 2 1.0 2.0 124 124
- 0.61057 1 2 cbr 1000 ------- 2 1.0 2.0 138 138
r 0.61097 1 2 cbr 1000 ------- 2 1.0 2.0 125 125
+ 0.611137 1 2 cbr 1000 ------- 2 1.0 2.0 142 142
- 0.61137 1 2 cbr 1000 ------- 2 1.0 2.0 139 139
r 0.61177 1 2 cbr 1000 ------- 2 1.0 2.0 126 126
+ 0.611905 1 2 cbr 1000 ------- 2 1.0 2.0 143 143
- 0.61217 1 2 cbr 1000 ------- 2 1.0 2.0 140 140
r 0.61257 1 2 cbr 1000 ------- 2 1.0 2.0 127 127
- 0.61297 1 2 cbr 1000 ------- 2 1.0 2.0 141 141
+ 0.613026 1 2 cbr 1000 ------- 2 1.0 2.0 144 144
r 0.61337 1 2 cbr 1000 ------- 2 1.0 2.0 128 128
- 0.61377 1 2 cbr 1000 ------- 2 1.0 2.0 142 142
r 0.61417 1 2 cbr 1000 ------- 2 1.0 2.0 129 129
+ 0.614192 1 2 cbr 1000 ------- 2 1.0 2.0 145 145
- 0.61457 1 2 cbr 1000 ------- 2 1.0 2.0 143 143
r 0.61497 1 2 cbr 1000 ------- 2 1.0 2.0 130 130
+ 0.615317 1 2 cbr 1000 ------- 2 1.0 2.0 146 146
- 0.61537 1 2 cbr 1000 ------- 2 1.0 2.0 144 144
r 0.61577 1 2 cbr 1000 ------- 2 1.0 2.0 131 131
+ 0.615838 1 2 cbr 1000 ------- 2 1.0 2.0 147 147
- 0.61617 1 2 cbr 1000 ------- 2 1.0 2.0 145 145
r 0.61657 1 2 cbr 1000 ------- 2 1.0 2.0 132 132
- 0.61697 1 2 cbr 1000 ------- 2 1.0 2.0 146 146
+ 0.616994 1 2 cbr 1000 ------- 2 1.0 2.0 148 148
r 0.61737 1 2 cbr 1000 ------- 2 1.0 2.0 133 133
- 0.61777 1 2 cbr 1000 ------- 2 1.0 2.0 147 147
+ 0.617827 1 2 cbr 1000 ------- 2 1.0 2.0 149 149
r 0.61817 1 2 cbr 1000 ------- 2 1.0 2.0 134 134
- 0.61857 1 2 cbr 1000 ------- 2 1.0 2.0 148 148
+ 0.618655 1 2 cbr 1000 ------- 2 1.0 2.0 150 150
r 0.61897 1 2 cbr 1000 ------- 2 1.0 2.0 135 135
+ 0.619108 1 2 cbr 1000 ------- 2 1.0 2.0 151 151
- 0.61937 1 2 cbr 1000 ------- 2 1.0 2.0 149 149
r 0.61977 1 2 cbr 1000 ------- 2 1.0 2.0 136 136
- 0.62017 1 2 cbr 1000 ------- 2 1.0 2.0 150 150
+ 0.620286 1 2 cbr 1000 ------- 2 1.0 2.0 152 152
r 0.62057 1 2 cbr 1000 ------- 2 1.0 2.0 137 137
- 0.62097 1 2 cbr 1000 ------- 2 1.0 2.0 151 151
+ 0.6211 1 2 cbr 1000 ------- 2 1.0 2.0 153 153
r 0.62137 1 2 cbr 1000 ------- 2 1.0 2.0 138 138
- 0.62177 1 2 cbr 1000 ------- 2 1.0 2.0 152 152
r 0.62217 1 2 cbr 1000 ------- 2 1.0 2.0 139 139
+ 0.622205 1 2 cbr 1000 ------- 2 1.0 2.0 154 154
- 0.62257 1 2 cbr 1000 ------- 2 1.0 2.0 153 153
r 0.62297 1 2 cbr 1000 ------- 2 1.0 2.0 140 140
+ 0.623189 1 2 cbr 1000 ------- 2 1.0 2.0 155 155
- 0.62337 1 2 cbr 1000 ------- 2 1.0 2.0 154 154
r 0.62377 1 2 cbr 1000 ------- 2 1.0 2.0 141 141
+ 0.623799 1 2 cbr 1000 ------- 2 1.0 2.0 156 156
- 0.62417 1 2 cbr 1000 ------- 2 1.0 2.0 155 155
r 0.62457 1 2 cbr 1000 ------- 2 1.0 2.0 142 142
+ 0.624583 1 2 cbr 1000 ------- 2 1.0 2.0 157 157
- 0.62497 1 2 cbr 1000 ------- 2 1.0 2.0 156 156
r 0.62537 1 2 cbr 1000 ------- 2 1.0 2.0 143 143
+ 0.625582 1 2 cbr 1000 ------- 2 1.0 2.0 158 158
- 0.62577 1 2 cbr 1000 ------- 2 1.0 2.0 157 157
+ 0.626147 1 2 cbr 1000 ------- 2 1.0 2.0 159 159
r 0.62617 1 2 cbr 1000 ------- 2 1.0 2.0 144 144
- 0.62657 1 2 cbr 1000 ------- 2 1.0 2.0 158 158
r 0.62697 1 2 cbr 1000 ------- 2 1.0 2.0 145 145
+ 0.627087 1 2 cbr 1000 ------- 2 1.0 2.0 160 160
- 0.62737 1 2 cbr 1000 ------- 2 1.0 2.0 159 159
r 0.62777 1 2 cbr 1000 ------- 2 1.0 2.0 146 146
+ 0.628013 1 2 cbr 1000 ------- 2 1.0 2.0 161 161
- 0.62817 1 2 cbr 1000 ------- 2 1.0 2.0 160 160
+ 0.628543 1 2 cbr 1000 ------- 2 1.0 2.0 162 162
r 0.62857 1 2 cbr 1000 ------- 2 1.0 2.0 147 147
- 0.62897 1 2 cbr 1000 ------- 2 1.0 2.0 161 161
+ 0.629154 1 2 cbr 1000 ------- 2 1.0 2.0 163 163
r 0.62937 1 2 cbr 1000 ------- 2 1.0 2.0 148 148
- 0.62977 1 2 cbr 1000 ------- 2 1.0 2.0 162 162
+ 0.629857 1 2 cbr 1000 ------- 2 1.0 2.0 164 164
r 0.63017 1 2 cbr 1000 ------- 2 1.0 2.0 149 149
- 0.63057 1 2 cbr 1000 ------- 2 1.0 2.0 163 163
+ 0.630747 1 2 cbr 1000 ------- 2 1.0 2.0 165 165
r 0.63097 1 2 cbr 1000 ------- 2 1.0 2.0 150 150
- 0.63137 1 2 cbr 1000 ------- 2 1.0 2.0 164 164
+ 0.631671 1 2 cbr 1000 ------- 2 1.0 2.0 166 166
r 0.63177 1 2 cbr 1000 ------- 2 1.0 2.0 151 151
- 0.63217 1 2 cbr 1000 ------- 2 1.0 2.0 165 165
r 0.63257 1 2 cbr 1000 ------- 2 1.0 2.0 152 152
+ 0.632755 1 2 cbr 1000 ------- 2 1.0 2.0 167 167
- 0.63297 1 2 cbr 1000 ------- 2 1.0 2.0 166 166
r 0.63337 1 2 cbr 1000 ------- 2 1.0 2.0 153 153
+ 0.633379 1 2 cbr 1000 ------- 2 1.0 2.0 168 168
- 0.63377 1 2 cbr 1000 ------- 2 1.0 2.0 167 167
+ 0.633912 1 2 cbr 1000 ------- 2 1.0 2.0 169 169
r 0.63417 1 2 cbr 1000 ------- 2 1.0 2.0 154 154
+ 0.634467 1 2 cbr 1000 ------- 2 1.0 2.0 170 170
- 0.63457 1 2 cbr 1000 ------- 2 1.0 2.0 168 168
+ 0.6349 1 2 cbr 1000 ------- 2 1.0 2.0 171 171
r 0.63497 1 2 cbr 1000 ------- 2 1.0 2.0 155 155
+ 0.635362 1 2 cbr 1000 ------- 2 1.0 2.0 172 172
- 0.63537 1 2 cbr 1000 ------- 2 1.0 2.0 169 169
r 0.63577 1 2 cbr 1000 ------- 2 1.0 2.0 156 156
+ 0.635857 1 2 cbr 1000 ------- 2 1.0 2.0 173 173
- 0.63617 1 2 cbr 1000 ------- 2 1.0 2.0 170 170
+ 0.6363 1 2 cbr 1000 ------- 2 1.0 2.0 174 174
r 0.63657 1 2 cbr 1000 ------- 2 1.0 2.0 157 157
- 0.63697 1 2 cbr 1000 ------- 2 1.0 2.0 171 171
+ 0.636988 1 2 cbr 1000 ------- 2 1.0 2.0 175 175
r 0.63737 1 2 cbr 1000 ------- 2 1.0 2.0 158 158
+ 0.637559 1 2 cbr 1000 ------- 2 1.0 2.0 176 176
- 0.63777 1 2 cbr 1000 ------- 2 1.0 2.0 172 172
+ 0.638003 1 2 cbr 1000 ------- 2 1.0 2.0 177 177
r 0.63817 1 2 cbr 1000 ------- 2 1.0 2.0 159 159
- 0.63857 1 2 cbr 1000 ------- 2 1.0 2.0 173 173
r 0.63897 1 2 cbr 1000 ------- 2 1.0 2.0 160 160
+ 0.639166 1 2 cbr 1000 ------- 2 1.0 2.0 178 178
- 0.63937 1 2 cbr 1000 ------- 2 1.0 2.0 174 174
r 0.63977 1 2 cbr 1000 ------- 2 1.0 2.0 161 161
- 0.64017 1 2 cbr 1000 ------- 2 1.0 2.0 175 175
+ 0.640224 1 2 cbr 1000 ------- 2 1.0 2.0 179 179
r 0.64057 1 2 cbr 1000 ------- 2 1.0 2.0 162 162
- 0.64097 1 2 cbr 1000 ------- 2 1.0 2.0 176 176
+ 0.641191 1 2 cbr 1000 ------- 2 1.0 2.0 180 180
r 0.64137 1 2 cbr 1000 ------- 2 1.0 2.0 163 163
- 0.64177 1 2 cbr 1000 ------- 2 1.0 2.0 177 177
+ 0.641935 1 2 cbr 1000 ------- 2 1.0 2.0 181 181
r 0.64217 1 2 cbr 1000 ------- 2 1.0 2.0 164 164
- 0.64257 1 2 cbr 1000 ------- 2 1.0 2.0 178 178
r 0.64297 1 2 cbr 1000 ------- 2 1.0 2.0 165 165
+ 0.642999 1 2 cbr 1000 ------- 2 1.0 2.0 182 182
- 0.64337 1 2 cbr 1000 ------- 2 1.0 2.0 179 179
+ 0.643714 1 2 cbr 1000 ------- 2 1.0 2.0 183 183
r 0.64377 1 2 cbr 1000 ------- 2 1.0 2.0 166 166
- 0.64417 1 2 cbr 1000 ------- 2 1.0 2.0 180 180
+ 0.644548 1 2 cbr 1000 ------- 2 1.0 2.0 184 184
r 0.64457 1 2 cbr 1000 ------- 2 1.0 2.0 167 167
- 0.64497 1 2 cbr 1000 ------- 2 1.0 2.0 181 181
+ 0.645052 1 2 cbr 1000 ------- 2 1.0 2.0 185 185
r 0.64537 1 2 cbr 1000 ------- 2 1.0 2.0 168 168
- 0.64577 1 2 cbr 1000 ------- 2 1.0 2.0 182 182
+ 0.645916 1 2 cbr 1000 ------- 2 1.0 2.0 186 186
r 0.64617 1 2 cbr 1000 ------- 2 1.0 2.0 169 169
- 0.64657 1 2 cbr 1000 ------- 2 1.0 2.0 183 183
+ 0.64665 1 2 cbr 1000 ------- 2 1.0 2.0 187 187
r 0.64697 1 2 cbr 1000 ------- 2 1.0 2.0 170 170
- 0.64737 1 2 cbr 1000 ------- 2 1.0 2.0 184 184
+ 0.647711 1 2 cbr 1000 ------- 2 1.0 2.0 188 188
r 0.64777 1 2 cbr 1000 ------- 2 1.0 2.0 171 171
- 0.64817 1 2 cbr 1000 ------- 2 1.0 2.0 185 185
r 0.64857 1 2 cbr 1000 ------- 2 1.0 2.0 172 172
+ 0.648756 1 2 cbr 1000 ------- 2 1.0 2.0 189 189
- 0.64897 1 2 cbr 1000 ------- 2 1.0 2.0 186 186
r 0.64937 1 2 cbr 1000 ------- 2 1.0 2.0 173 173
- 0.64977 1 2 cbr 1000 ------- 2 1.0 2.0 187 187
+ 0.649842 1 2 cbr 1000 ------- 2 1.0 2.0 190 190
r 0.65017 1 2 cbr 1000 ------- 2 1.0 2.0 174 174
+ 0.650245 1 2 cbr 1000 ------- 2 1.0 2.0 191 191
- 0.65057 1 2 cbr 1000 ------- 2 1.0 2.0 188 188
r 0.65097 1 2 cbr 1000 ------- 2 1.0 2.0 175 175
+ 0.65128 1 2 cbr 1000 ------- 2 1.0 2.0 192 192
- 0.65137 1 2 cbr 1000 ------- 2 1.0 2.0 189 189
+ 0.651741 1 2 cbr 1000 ------- 2 1.0 2.0 193 193
r 0.65177 1 2 cbr 1000 ------- 2 1.0 2.0 176 176
- 0.65217 1 2 cbr 1000 ------- 2 1.0 2.0 190 190
+ 0.65231 1 2 cbr 1000 ------- 2 1.0 2.0 194 194
r 0.65257 1 2 cbr 1000 ------- 2 1.0 2.0 177 177
- 0.65297 1 2 cbr 1000 ------- 2 1.0 2.0 191 191
r 0.65337 1 2 cbr 1000 ------- 2 1.0 2.0 178 178
+ 0.65338 1 2 cbr 1000 ------- 2 1.0 2.0 195 195
- 0.65377 1 2 cbr 1000 ------- 2 1.0 2.0 192 192
+ 0.654162 1 2 cbr 1000 ------- 2 1.0 2.0 196 196
r 0.65417 1 2 cbr 1000 ------- 2 1.0 2.0 179 179
- 0.65457 1 2 cbr 1000 ------- 2 1.0 2.0 193 193
+ 0.65469 1 2 cbr 1000 ------- 2 1.0 2.0 197 197
r 0.65497 1 2 cbr 1000 ------- 2 1.0 2.0 180 180
+ 0.655305 1 2 cbr 1000 ------- 2 1.0 2.0 198 198
- 0.65537 1 2 cbr 1000 ------- 2 1.0 2.0 194 194
+ 0.655721 1 2 cbr 1000 ------- 2 1.0 2.0 199 199
r 0.65577 1 2 cbr 1000 ------- 2 1.0 2.0 181 181
- 0.65617 1 2 cbr 1000 ------- 2 1.0 2.0 195 195
r 0.65657 1 2 cbr 1000 ------- 2 1.0 2.0 182 182
+ 0.656685 1 2 cbr 1000 ------- 2 1.0 2.0 200 200
- 0.65697 1 2 cbr 1000 ------- 2 1.0 2.0 196 196
r 0.65737 1 2 cbr 1000 ------- 2 1.0 2.0 183 183
+ 0.65743 1 2 cbr 1000 ------- 2 1.0 2.0 201 201
- 0.65777 1 2 cbr 1000 ------- 2 1.0 2.0 197 197
r 0.65817 1 2 cbr 1000 ------- 2 1.0 2.0 184 184
+ 0.65822 1 2 cbr 1000 ------- 2 1.0 2.0 202 202
- 0.65857 1 2 cbr 1000 ------- 2 1.0 2.0 198 198
+ 0.658866 1 2 cbr 1000 ------- 2 1.0 2.0 203 203
r 0.65897 1 2 cbr 1000 ------- 2 1.0 2.0 185 185
+ 0.659273 1 2 cbr 1000 ------- 2 1.0 2.0 204 204
- 0.65937 1 2 cbr 1000 ------- 2 1.0 2.0 199 199
r 0.65977 1 2 cbr 1000 ------- 2 1.0 2.0 186 186
- 0.66017 1 2 cbr 1000 ------- 2 1.0 2.0 200 200
+ 0.660225 1 2 cbr 1000 ------- 2 1.0 2.0 205 205
r 0.66057 1 2 cbr 1000 ------- 2 1.0 2.0 187 187
+ 0.660836 1 2 cbr 1000 ------- 2 1.0 2.0 206 206
- 0.66097 1 2 cbr 1000 ------- 2 1.0 2.0 201 201
r 0.66137 1 2 cbr 1000 ------- 2 1.0 2.0 188 188
+ 0.661611 1 2 cbr 1000 ------- 2 1.0 2.0 207 207
- 0.66177 1 2 cbr 1000 ------- 2 1.0 2.0 202 202
r 0.66217 1 2 cbr 1000 ------- 2 1.0 2.0 189 189
- 0.66257 1 2 cbr 1000 ------- 2 1.0 2.0 203 203
+ 0.66273 1 2 cbr 1000 ------- 2 1.0 2.0 208 208
r 0.66297 1 2 cbr 1000 ------- 2 1.0 2.0 190 190
- 0.66337 1 2 cbr 1000 ------- 2 1.0 2.0 204 204
+ 0.663412 1 2 cbr 1000 ------- 2 1.0 2.0 209 209
r 0.66377 1 2 cbr 1000 ------- 2 1.0 2.0 191 191
- 0.66417 1 2 cbr 1000 ------- 2 1.0 2.0 205 205
+ 0.664194 1 2 cbr 1000 ------- 2 1.0 2.0 210 210
r 0.66457 1 2 cbr 1000 ------- 2 1.0 2.0 192 192
+ 0.664626 1 2 cbr 1000 ------- 2 1.0 2.0 211 211
- 0.66497 1 2 cbr 1000 ------- 2 1.0 2.0 206 206
r 0.66537 1 2 cbr 1000 ------- 2 1.0 2.0 193 193
- 0.66577 1 2 cbr 1000 ------- 2 1.0 2.0 207 207
+ 0.665816 1 2 cbr 1000 ------- 2 1.0 2.0 212 212
r 0.66617 1 2 cbr 1000 ------- 2 1.0 2.0 194 194
+ 0.666562 1 2 cbr 1000 ------- 2 1.0 2.0 213 213
- 0.66657 1 2 cbr 1000 ------- 2 1.0 2.0 208 208
r 0.66697 1 2 cbr 1000 ------- 2 1.0 2.0 195 195
+ 0.667366 1 2 cbr 1000 ------- 2 1.0 2.0 214 214
- 0.66737 1 2 cbr 1000 ------- 2 1.0 2.0 209 209
r 0.66777 1 2 cbr 1000 ------- 2 1.0 2.0 196 196
- 0.66817 1 2 cbr 1000 ------- 2 1.0 2.0 210 210
+ 0.66828 1 2 cbr 1000 ------- 2 1.0 2.0 215 215
r 0.66857 1 2 cbr 1000 ------- 2 1.0 2.0 197 197
- 0.66897 1 2 cbr 1000 ------- 2 1.0 2.0 211 211